<?xml version="1.0" encoding="UTF-8"?>

<!-- generated on Wed Jun 26 12:51:04 2019 by Eclipse SUMO GUI Version v1_2_0+0765-3423b2ab8c
<configuration xmlns:xsi="http://www.w3.org/2001/XMLSchema-instance" xsi:noNamespaceSchemaLocation="http://sumo.dlr.de/xsd/sumoConfiguration.xsd">

    <input>
        <net-file value="data/sample.net.xml"/>
        <route-files value="data/sample1.rou.xml"/>
    </input>

    <output>
        <tripinfo-output value="tripinfo.xml"/>
    </output>

    <time>
        <begin value="0"/>
        <end value="20000"/>
    </time>

    <traci_server>
        <remote-port value="60999"/>
    </traci_server>

</configuration>
-->

<tripinfos xmlns:xsi="http://www.w3.org/2001/XMLSchema-instance" xsi:noNamespaceSchemaLocation="http://sumo.dlr.de/xsd/tripinfo_file.xsd">
    <tripinfo id="route1_2" depart="7.00" departLane="1to2_0" departPos="7.10" departSpeed="0.00" departDelay="5.00" arrival="56.00" arrivalLane="2to4_0" arrivalPos="256.62" arrivalSpeed="13.90" duration="49.00" routeLength="517.47" waitingTime="0.00" waitingCount="0" stopTime="0.00" timeLoss="11.47" rerouteNo="0" devices="tripinfo_route1_2" vType="typeNS" speedFactor="1.01" vaporized=""/>
    <tripinfo id="route2_0" depart="0.00" departLane="1to3_0" departPos="7.10" departSpeed="0.00" departDelay="0.00" arrival="61.00" arrivalLane="h2to4_0" arrivalPos="253.25" arrivalSpeed="14.69" duration="61.00" routeLength="518.76" waitingTime="1.00" waitingCount="1" stopTime="0.00" timeLoss="25.64" rerouteNo="0" devices="tripinfo_route2_0" vType="typeNS" speedFactor="1.06" vaporized=""/>
    <tripinfo id="route2_4" depart="6.00" departLane="1to3_0" departPos="7.10" departSpeed="0.00" departDelay="2.00" arrival="69.00" arrivalLane="h2to4_0" arrivalPos="253.25" arrivalSpeed="14.06" duration="63.00" routeLength="518.76" waitingTime="1.00" waitingCount="1" stopTime="0.00" timeLoss="26.20" rerouteNo="0" devices="tripinfo_route2_4" vType="typeNS" speedFactor="1.03" vaporized=""/>
    <tripinfo id="route1_8" depart="24.00" departLane="1to2_0" departPos="7.10" departSpeed="0.00" departDelay="16.00" arrival="76.00" arrivalLane="2to4_0" arrivalPos="256.62" arrivalSpeed="12.90" duration="52.00" routeLength="517.47" waitingTime="0.00" waitingCount="0" stopTime="0.00" timeLoss="11.61" rerouteNo="0" devices="tripinfo_route1_8" vType="typeNS" speedFactor="0.94" vaporized=""/>
    <tripinfo id="route0_1" depart="1.00" departLane="1to2_0" departPos="7.10" departSpeed="0.00" departDelay="0.00" arrival="79.00" arrivalLane="h2to4_1" arrivalPos="253.25" arrivalSpeed="12.93" duration="78.00" routeLength="707.74" waitingTime="0.00" waitingCount="0" stopTime="0.00" timeLoss="21.29" rerouteNo="0" devices="tripinfo_route0_1" vType="typeNS" speedFactor="0.94" vaporized=""/>
    <tripinfo id="route2_5" depart="12.00" departLane="1to3_0" departPos="7.10" departSpeed="0.00" departDelay="7.00" arrival="79.00" arrivalLane="h2to4_0" arrivalPos="253.25" arrivalSpeed="11.50" duration="67.00" routeLength="518.76" waitingTime="1.00" waitingCount="1" stopTime="0.00" timeLoss="21.25" rerouteNo="0" devices="tripinfo_route2_5" vType="typeNS" speedFactor="0.83" vaporized=""/>
    <tripinfo id="route0_3" depart="12.00" departLane="1to2_0" departPos="7.10" departSpeed="0.00" departDelay="9.00" arrival="85.00" arrivalLane="h2to4_1" arrivalPos="253.25" arrivalSpeed="14.94" duration="73.00" routeLength="707.74" waitingTime="0.00" waitingCount="0" stopTime="0.00" timeLoss="24.80" rerouteNo="0" devices="tripinfo_route0_3" vType="typeNS" speedFactor="1.08" vaporized=""/>
    <tripinfo id="route2_6" depart="18.00" departLane="1to3_0" departPos="7.10" departSpeed="0.00" departDelay="12.00" arrival="86.00" arrivalLane="h2to4_0" arrivalPos="253.25" arrivalSpeed="14.43" duration="68.00" routeLength="518.76" waitingTime="1.00" waitingCount="1" stopTime="0.00" timeLoss="31.47" rerouteNo="0" devices="tripinfo_route2_6" vType="typeNS" speedFactor="1.05" vaporized=""/>
    <tripinfo id="route2_11" depart="23.00" departLane="1to3_0" departPos="7.10" departSpeed="0.00" departDelay="12.00" arrival="95.00" arrivalLane="h2to4_0" arrivalPos="253.25" arrivalSpeed="14.06" duration="72.00" routeLength="518.76" waitingTime="1.00" waitingCount="1" stopTime="0.00" timeLoss="35.43" rerouteNo="0" devices="tripinfo_route2_11" vType="typeNS" speedFactor="1.03" vaporized=""/>
    <tripinfo id="route0_7" depart="18.00" departLane="1to2_0" departPos="7.10" departSpeed="0.00" departDelay="11.00" arrival="98.00" arrivalLane="h2to4_1" arrivalPos="253.25" arrivalSpeed="11.93" duration="80.00" routeLength="707.74" waitingTime="0.00" waitingCount="0" stopTime="0.00" timeLoss="21.01" rerouteNo="0" devices="tripinfo_route0_7" vType="typeNS" speedFactor="0.89" vaporized=""/>
    <tripinfo id="route2_14" depart="29.00" departLane="1to3_0" departPos="7.10" departSpeed="0.00" departDelay="15.00" arrival="105.00" arrivalLane="h2to4_0" arrivalPos="253.25" arrivalSpeed="13.61" duration="76.00" routeLength="518.76" waitingTime="1.00" waitingCount="1" stopTime="0.00" timeLoss="38.05" rerouteNo="0" devices="tripinfo_route2_14" vType="typeNS" speedFactor="0.99" vaporized=""/>
    <tripinfo id="route0_9" depart="30.00" departLane="1to2_0" departPos="7.10" departSpeed="0.00" departDelay="21.00" arrival="111.00" arrivalLane="h2to4_0" arrivalPos="253.25" arrivalSpeed="11.76" duration="81.00" routeLength="707.74" waitingTime="0.00" waitingCount="0" stopTime="0.00" timeLoss="20.22" rerouteNo="0" devices="tripinfo_route0_9" vType="typeNS" speedFactor="0.86" vaporized=""/>
    <tripinfo id="route0_10" depart="36.00" departLane="1to2_0" departPos="7.10" departSpeed="0.00" departDelay="26.00" arrival="112.00" arrivalLane="h2to4_1" arrivalPos="253.25" arrivalSpeed="14.96" duration="76.00" routeLength="707.74" waitingTime="0.00" waitingCount="0" stopTime="0.00" timeLoss="26.77" rerouteNo="0" devices="tripinfo_route0_10" vType="typeNS" speedFactor="1.09" vaporized=""/>
    <tripinfo id="route2_15" depart="35.00" departLane="1to3_0" departPos="7.10" departSpeed="0.00" departDelay="20.00" arrival="115.00" arrivalLane="h2to4_0" arrivalPos="253.25" arrivalSpeed="12.68" duration="80.00" routeLength="518.76" waitingTime="2.00" waitingCount="2" stopTime="0.00" timeLoss="39.43" rerouteNo="0" devices="tripinfo_route2_15" vType="typeNS" speedFactor="0.93" vaporized=""/>
    <tripinfo id="route1_22" depart="66.00" departLane="1to2_0" departPos="7.10" departSpeed="0.00" departDelay="44.00" arrival="116.00" arrivalLane="2to4_0" arrivalPos="256.62" arrivalSpeed="13.23" duration="50.00" routeLength="517.47" waitingTime="0.00" waitingCount="0" stopTime="0.00" timeLoss="11.57" rerouteNo="0" devices="tripinfo_route1_22" vType="typeNS" speedFactor="0.98" vaporized=""/>
    <tripinfo id="route0_12" depart="42.00" departLane="1to2_0" departPos="7.10" departSpeed="0.00" departDelay="30.00" arrival="117.00" arrivalLane="h2to4_1" arrivalPos="253.25" arrivalSpeed="14.18" duration="75.00" routeLength="707.74" waitingTime="0.00" waitingCount="0" stopTime="0.00" timeLoss="24.52" rerouteNo="0" devices="tripinfo_route0_12" vType="typeNS" speedFactor="1.05" vaporized=""/>
    <tripinfo id="route0_13" depart="48.00" departLane="1to2_0" departPos="7.10" departSpeed="0.00" departDelay="35.00" arrival="120.00" arrivalLane="h2to4_1" arrivalPos="253.25" arrivalSpeed="15.56" duration="72.00" routeLength="707.74" waitingTime="0.00" waitingCount="0" stopTime="0.00" timeLoss="24.92" rerouteNo="0" devices="tripinfo_route0_13" vType="typeNS" speedFactor="1.12" vaporized=""/>
    <tripinfo id="route2_17" depart="41.00" departLane="1to3_0" departPos="7.10" departSpeed="0.00" departDelay="24.00" arrival="123.00" arrivalLane="h2to4_0" arrivalPos="253.25" arrivalSpeed="12.89" duration="82.00" routeLength="518.76" waitingTime="3.00" waitingCount="3" stopTime="0.00" timeLoss="41.55" rerouteNo="0" devices="tripinfo_route2_17" vType="typeNS" speedFactor="0.94" vaporized=""/>
    <tripinfo id="route1_25" depart="78.00" departLane="1to2_0" departPos="7.10" departSpeed="0.00" departDelay="53.00" arrival="132.00" arrivalLane="2to4_0" arrivalPos="256.62" arrivalSpeed="11.93" duration="54.00" routeLength="517.47" waitingTime="0.00" waitingCount="0" stopTime="0.00" timeLoss="10.43" rerouteNo="0" devices="tripinfo_route1_25" vType="typeNS" speedFactor="0.87" vaporized=""/>
    <tripinfo id="route2_18" depart="47.00" departLane="1to3_0" departPos="7.10" departSpeed="0.00" departDelay="29.00" arrival="133.00" arrivalLane="h2to4_0" arrivalPos="253.25" arrivalSpeed="12.84" duration="86.00" routeLength="518.76" waitingTime="1.00" waitingCount="1" stopTime="0.00" timeLoss="45.09" rerouteNo="0" devices="tripinfo_route2_18" vType="typeNS" speedFactor="0.94" vaporized=""/>
    <tripinfo id="route0_16" depart="54.00" departLane="1to2_0" departPos="7.10" departSpeed="0.00" departDelay="38.00" arrival="134.00" arrivalLane="h2to4_1" arrivalPos="253.25" arrivalSpeed="11.83" duration="80.00" routeLength="707.74" waitingTime="0.00" waitingCount="0" stopTime="0.00" timeLoss="20.95" rerouteNo="0" devices="tripinfo_route0_16" vType="typeNS" speedFactor="0.88" vaporized=""/>
    <tripinfo id="route0_19" depart="60.00" departLane="1to2_0" departPos="7.10" departSpeed="0.00" departDelay="41.00" arrival="136.00" arrivalLane="h2to4_1" arrivalPos="253.25" arrivalSpeed="13.82" duration="76.00" routeLength="707.74" waitingTime="0.00" waitingCount="0" stopTime="0.00" timeLoss="30.73" rerouteNo="0" devices="tripinfo_route0_19" vType="typeNS" speedFactor="1.16" vaporized=""/>
    <tripinfo id="route2_20" depart="53.00" departLane="1to3_0" departPos="7.10" departSpeed="0.00" departDelay="33.00" arrival="140.00" arrivalLane="h2to4_0" arrivalPos="253.25" arrivalSpeed="14.10" duration="87.00" routeLength="518.76" waitingTime="1.00" waitingCount="1" stopTime="0.00" timeLoss="49.56" rerouteNo="0" devices="tripinfo_route2_20" vType="typeNS" speedFactor="1.02" vaporized=""/>
    <tripinfo id="route1_34" depart="96.00" departLane="1to2_0" departPos="7.10" departSpeed="0.00" departDelay="62.00" arrival="145.00" arrivalLane="2to4_0" arrivalPos="256.62" arrivalSpeed="13.79" duration="49.00" routeLength="517.47" waitingTime="0.00" waitingCount="0" stopTime="0.00" timeLoss="11.24" rerouteNo="0" devices="tripinfo_route1_34" vType="typeNS" speedFactor="0.99" vaporized=""/>
    <tripinfo id="route2_21" depart="58.00" departLane="1to3_0" departPos="7.10" departSpeed="0.00" departDelay="37.00" arrival="149.00" arrivalLane="h2to4_0" arrivalPos="253.25" arrivalSpeed="13.84" duration="91.00" routeLength="518.76" waitingTime="1.00" waitingCount="1" stopTime="0.00" timeLoss="53.56" rerouteNo="0" devices="tripinfo_route2_21" vType="typeNS" speedFactor="1.01" vaporized=""/>
    <tripinfo id="route0_23" depart="72.00" departLane="1to2_0" departPos="7.10" departSpeed="0.00" departDelay="49.00" arrival="151.00" arrivalLane="h2to4_1" arrivalPos="253.25" arrivalSpeed="12.34" duration="79.00" routeLength="707.74" waitingTime="0.00" waitingCount="0" stopTime="0.00" timeLoss="20.23" rerouteNo="0" devices="tripinfo_route0_23" vType="typeNS" speedFactor="0.89" vaporized=""/>
    <tripinfo id="route2_24" depart="64.00" departLane="1to3_0" departPos="7.10" departSpeed="0.00" departDelay="40.00" arrival="158.00" arrivalLane="h2to4_0" arrivalPos="253.25" arrivalSpeed="11.37" duration="94.00" routeLength="518.76" waitingTime="1.00" waitingCount="1" stopTime="0.00" timeLoss="48.13" rerouteNo="0" devices="tripinfo_route2_24" vType="typeNS" speedFactor="0.83" vaporized=""/>
    <tripinfo id="route0_26" depart="84.00" departLane="1to2_0" departPos="7.10" departSpeed="0.00" departDelay="58.00" arrival="163.00" arrivalLane="h2to4_0" arrivalPos="253.25" arrivalSpeed="12.71" duration="79.00" routeLength="707.74" waitingTime="0.00" waitingCount="0" stopTime="0.00" timeLoss="21.87" rerouteNo="0" devices="tripinfo_route0_26" vType="typeNS" speedFactor="0.92" vaporized=""/>
    <tripinfo id="route1_43" depart="114.00" departLane="1to2_0" departPos="7.10" departSpeed="0.00" departDelay="71.00" arrival="164.00" arrivalLane="2to4_0" arrivalPos="256.62" arrivalSpeed="14.14" duration="50.00" routeLength="517.47" waitingTime="0.00" waitingCount="0" stopTime="0.00" timeLoss="13.41" rerouteNo="0" devices="tripinfo_route1_43" vType="typeNS" speedFactor="1.04" vaporized=""/>
    <tripinfo id="route2_28" depart="70.00" departLane="1to3_0" departPos="7.10" departSpeed="0.00" departDelay="42.00" arrival="165.00" arrivalLane="h2to4_0" arrivalPos="253.25" arrivalSpeed="15.67" duration="95.00" routeLength="518.76" waitingTime="2.00" waitingCount="2" stopTime="0.00" timeLoss="61.45" rerouteNo="0" devices="tripinfo_route2_28" vType="typeNS" speedFactor="1.13" vaporized=""/>
    <tripinfo id="route0_27" depart="90.00" departLane="1to2_0" departPos="7.10" departSpeed="0.00" departDelay="63.00" arrival="168.00" arrivalLane="h2to4_1" arrivalPos="253.25" arrivalSpeed="12.82" duration="78.00" routeLength="707.74" waitingTime="0.00" waitingCount="0" stopTime="0.00" timeLoss="22.59" rerouteNo="0" devices="tripinfo_route0_27" vType="typeNS" speedFactor="0.95" vaporized=""/>
    <tripinfo id="route2_29" depart="76.00" departLane="1to3_0" departPos="7.10" departSpeed="0.00" departDelay="47.00" arrival="174.00" arrivalLane="h2to4_0" arrivalPos="253.25" arrivalSpeed="12.61" duration="98.00" routeLength="518.76" waitingTime="1.00" waitingCount="1" stopTime="0.00" timeLoss="57.71" rerouteNo="0" devices="tripinfo_route2_29" vType="typeNS" speedFactor="0.93" vaporized=""/>
    <tripinfo id="route0_41" depart="102.00" departLane="1to2_0" departPos="7.10" departSpeed="0.00" departDelay="61.00" arrival="179.00" arrivalLane="h2to4_1" arrivalPos="253.25" arrivalSpeed="13.21" duration="77.00" routeLength="707.74" waitingTime="0.00" waitingCount="0" stopTime="0.00" timeLoss="22.30" rerouteNo="0" devices="tripinfo_route0_41" vType="typeNS" speedFactor="0.96" vaporized=""/>
    <tripinfo id="route2_30" depart="81.00" departLane="1to3_0" departPos="7.10" departSpeed="0.00" departDelay="51.00" arrival="181.00" arrivalLane="h2to4_0" arrivalPos="253.25" arrivalSpeed="16.27" duration="100.00" routeLength="518.76" waitingTime="1.00" waitingCount="1" stopTime="0.00" timeLoss="67.58" rerouteNo="0" devices="tripinfo_route2_30" vType="typeNS" speedFactor="1.18" vaporized=""/>
    <tripinfo id="route0_42" depart="108.00" departLane="1to2_0" departPos="7.10" departSpeed="0.00" departDelay="66.00" arrival="183.00" arrivalLane="h2to4_1" arrivalPos="253.25" arrivalSpeed="15.08" duration="75.00" routeLength="707.74" waitingTime="0.00" waitingCount="0" stopTime="0.00" timeLoss="26.92" rerouteNo="0" devices="tripinfo_route0_42" vType="typeNS" speedFactor="1.09" vaporized=""/>
    <tripinfo id="route2_31" depart="87.00" departLane="1to3_0" departPos="7.10" departSpeed="0.00" departDelay="56.00" arrival="191.00" arrivalLane="h2to4_0" arrivalPos="253.25" arrivalSpeed="16.01" duration="104.00" routeLength="518.76" waitingTime="1.00" waitingCount="1" stopTime="0.00" timeLoss="70.64" rerouteNo="0" devices="tripinfo_route2_31" vType="typeNS" speedFactor="1.15" vaporized=""/>
    <tripinfo id="route1_47" depart="138.00" departLane="1to2_0" departPos="7.10" departSpeed="0.00" departDelay="91.00" arrival="192.00" arrivalLane="2to4_0" arrivalPos="256.62" arrivalSpeed="12.39" duration="54.00" routeLength="517.47" waitingTime="0.00" waitingCount="0" stopTime="0.00" timeLoss="11.90" rerouteNo="0" devices="tripinfo_route1_47" vType="typeNS" speedFactor="0.90" vaporized=""/>
    <tripinfo id="route0_44" depart="121.00" departLane="1to2_0" departPos="7.10" departSpeed="0.00" departDelay="77.00" arrival="195.00" arrivalLane="h2to4_1" arrivalPos="253.25" arrivalSpeed="14.43" duration="74.00" routeLength="707.74" waitingTime="0.00" waitingCount="0" stopTime="0.00" timeLoss="23.23" rerouteNo="0" devices="tripinfo_route0_44" vType="typeNS" speedFactor="1.04" vaporized=""/>
    <tripinfo id="route2_32" depart="93.00" departLane="1to3_0" departPos="7.10" departSpeed="0.00" departDelay="61.00" arrival="199.00" arrivalLane="h2to4_0" arrivalPos="253.25" arrivalSpeed="13.74" duration="106.00" routeLength="518.76" waitingTime="2.00" waitingCount="2" stopTime="0.00" timeLoss="67.95" rerouteNo="0" devices="tripinfo_route2_32" vType="typeNS" speedFactor="1.01" vaporized=""/>
    <tripinfo id="route1_49" depart="145.00" departLane="1to2_0" departPos="7.10" departSpeed="0.00" departDelay="96.00" arrival="199.00" arrivalLane="2to4_0" arrivalPos="256.62" arrivalSpeed="11.69" duration="54.00" routeLength="517.47" waitingTime="0.00" waitingCount="0" stopTime="0.00" timeLoss="9.94" rerouteNo="0" devices="tripinfo_route1_49" vType="typeNS" speedFactor="0.85" vaporized=""/>
    <tripinfo id="route0_45" depart="127.00" departLane="1to2_0" departPos="7.10" departSpeed="0.00" departDelay="82.00" arrival="200.00" arrivalLane="h2to4_1" arrivalPos="253.25" arrivalSpeed="14.91" duration="73.00" routeLength="707.74" waitingTime="0.00" waitingCount="0" stopTime="0.00" timeLoss="24.88" rerouteNo="0" devices="tripinfo_route0_45" vType="typeNS" speedFactor="1.09" vaporized=""/>
    <tripinfo id="route1_50" depart="151.00" departLane="1to2_0" departPos="7.10" departSpeed="0.00" departDelay="101.00" arrival="205.00" arrivalLane="2to4_0" arrivalPos="256.62" arrivalSpeed="11.79" duration="54.00" routeLength="517.47" waitingTime="0.00" waitingCount="0" stopTime="0.00" timeLoss="9.85" rerouteNo="0" devices="tripinfo_route1_50" vType="typeNS" speedFactor="0.85" vaporized=""/>
    <tripinfo id="route2_33" depart="99.00" departLane="1to3_0" departPos="7.10" departSpeed="0.00" departDelay="66.00" arrival="206.00" arrivalLane="h2to4_0" arrivalPos="253.25" arrivalSpeed="15.91" duration="107.00" routeLength="518.76" waitingTime="2.00" waitingCount="2" stopTime="0.00" timeLoss="74.86" rerouteNo="0" devices="tripinfo_route2_33" vType="typeNS" speedFactor="1.17" vaporized=""/>
    <tripinfo id="route0_46" depart="133.00" departLane="1to2_0" departPos="7.10" departSpeed="0.00" departDelay="87.00" arrival="208.00" arrivalLane="h2to4_1" arrivalPos="253.25" arrivalSpeed="13.68" duration="75.00" routeLength="707.74" waitingTime="0.00" waitingCount="0" stopTime="0.00" timeLoss="21.68" rerouteNo="0" devices="tripinfo_route0_46" vType="typeNS" speedFactor="1.00" vaporized=""/>
    <tripinfo id="route1_52" depart="163.00" departLane="1to2_0" departPos="7.10" departSpeed="0.00" departDelay="111.00" arrival="213.00" arrivalLane="2to4_0" arrivalPos="256.62" arrivalSpeed="13.80" duration="50.00" routeLength="517.47" waitingTime="0.00" waitingCount="0" stopTime="0.00" timeLoss="12.88" rerouteNo="0" devices="tripinfo_route1_52" vType="typeNS" speedFactor="1.02" vaporized=""/>
    <tripinfo id="route2_35" depart="105.00" departLane="1to3_0" departPos="7.10" departSpeed="0.00" departDelay="70.00" arrival="216.00" arrivalLane="h2to4_0" arrivalPos="253.25" arrivalSpeed="13.96" duration="111.00" routeLength="518.76" waitingTime="2.00" waitingCount="2" stopTime="0.00" timeLoss="74.05" rerouteNo="0" devices="tripinfo_route2_35" vType="typeNS" speedFactor="1.02" vaporized=""/>
    <tripinfo id="route2_36" depart="111.00" departLane="1to3_0" departPos="7.10" departSpeed="0.00" departDelay="75.00" arrival="224.00" arrivalLane="h2to4_0" arrivalPos="253.25" arrivalSpeed="13.32" duration="113.00" routeLength="518.76" waitingTime="2.00" waitingCount="2" stopTime="0.00" timeLoss="74.28" rerouteNo="0" devices="tripinfo_route2_36" vType="typeNS" speedFactor="0.97" vaporized=""/>
    <tripinfo id="route0_51" depart="157.00" departLane="1to2_0" departPos="7.10" departSpeed="0.00" departDelay="106.00" arrival="229.00" arrivalLane="h2to4_1" arrivalPos="253.25" arrivalSpeed="15.86" duration="72.00" routeLength="707.74" waitingTime="0.00" waitingCount="0" stopTime="0.00" timeLoss="26.44" rerouteNo="0" devices="tripinfo_route0_51" vType="typeNS" speedFactor="1.17" vaporized=""/>
    <tripinfo id="route1_59" depart="181.00" departLane="1to2_0" departPos="7.10" departSpeed="0.00" departDelay="122.00" arrival="231.00" arrivalLane="2to4_0" arrivalPos="256.62" arrivalSpeed="13.46" duration="50.00" routeLength="517.47" waitingTime="0.00" waitingCount="0" stopTime="0.00" timeLoss="10.94" rerouteNo="0" devices="tripinfo_route1_59" vType="typeNS" speedFactor="0.97" vaporized=""/>
    <tripinfo id="route2_37" depart="116.00" departLane="1to3_0" departPos="7.10" departSpeed="0.00" departDelay="79.00" arrival="233.00" arrivalLane="h2to4_0" arrivalPos="253.25" arrivalSpeed="16.30" duration="117.00" routeLength="518.76" waitingTime="2.00" waitingCount="2" stopTime="0.00" timeLoss="84.48" rerouteNo="0" devices="tripinfo_route2_37" vType="typeNS" speedFactor="1.18" vaporized=""/>
    <tripinfo id="route2_38" depart="123.00" departLane="1to3_0" departPos="7.10" departSpeed="0.00" departDelay="85.00" arrival="243.00" arrivalLane="h2to4_0" arrivalPos="253.25" arrivalSpeed="15.16" duration="120.00" routeLength="518.76" waitingTime="2.00" waitingCount="2" stopTime="0.00" timeLoss="85.62" rerouteNo="0" devices="tripinfo_route2_38" vType="typeNS" speedFactor="1.10" vaporized=""/>
    <tripinfo id="route1_68" depart="199.00" departLane="1to2_0" departPos="7.10" departSpeed="0.00" departDelay="131.00" arrival="248.00" arrivalLane="2to4_0" arrivalPos="256.62" arrivalSpeed="14.30" duration="49.00" routeLength="517.47" waitingTime="0.00" waitingCount="0" stopTime="0.00" timeLoss="12.88" rerouteNo="0" devices="tripinfo_route1_68" vType="typeNS" speedFactor="1.04" vaporized=""/>
    <tripinfo id="route0_56" depart="169.00" departLane="1to2_0" departPos="7.10" departSpeed="0.00" departDelay="113.00" arrival="249.00" arrivalLane="h2to4_1" arrivalPos="253.25" arrivalSpeed="12.44" duration="80.00" routeLength="707.74" waitingTime="0.00" waitingCount="0" stopTime="0.00" timeLoss="21.09" rerouteNo="0" devices="tripinfo_route0_56" vType="typeNS" speedFactor="0.90" vaporized=""/>
    <tripinfo id="route0_58" depart="175.00" departLane="1to2_0" departPos="7.10" departSpeed="0.00" departDelay="117.00" arrival="251.00" arrivalLane="h2to4_1" arrivalPos="253.25" arrivalSpeed="13.86" duration="76.00" routeLength="707.74" waitingTime="0.00" waitingCount="0" stopTime="0.00" timeLoss="24.66" rerouteNo="0" devices="tripinfo_route0_58" vType="typeNS" speedFactor="1.02" vaporized=""/>
    <tripinfo id="route2_39" depart="129.00" departLane="1to3_0" departPos="7.10" departSpeed="0.00" departDelay="90.00" arrival="253.00" arrivalLane="h2to4_0" arrivalPos="253.25" arrivalSpeed="12.32" duration="124.00" routeLength="518.76" waitingTime="2.00" waitingCount="2" stopTime="0.00" timeLoss="81.97" rerouteNo="0" devices="tripinfo_route2_39" vType="typeNS" speedFactor="0.90" vaporized=""/>
    <tripinfo id="route1_69" depart="205.00" departLane="1to2_0" departPos="7.10" departSpeed="0.00" departDelay="136.00" arrival="254.00" arrivalLane="2to4_0" arrivalPos="256.62" arrivalSpeed="13.88" duration="49.00" routeLength="517.47" waitingTime="0.00" waitingCount="0" stopTime="0.00" timeLoss="12.15" rerouteNo="0" devices="tripinfo_route1_69" vType="typeNS" speedFactor="1.02" vaporized=""/>
    <tripinfo id="route2_40" depart="134.00" departLane="1to3_0" departPos="7.10" departSpeed="0.00" departDelay="94.00" arrival="259.00" arrivalLane="h2to4_0" arrivalPos="253.25" arrivalSpeed="14.05" duration="125.00" routeLength="518.76" waitingTime="3.00" waitingCount="3" stopTime="0.00" timeLoss="88.09" rerouteNo="0" devices="tripinfo_route2_40" vType="typeNS" speedFactor="1.03" vaporized=""/>
    <tripinfo id="route1_73" depart="217.00" departLane="1to2_0" departPos="7.10" departSpeed="0.00" departDelay="144.00" arrival="265.00" arrivalLane="2to4_0" arrivalPos="256.62" arrivalSpeed="14.65" duration="48.00" routeLength="517.47" waitingTime="0.00" waitingCount="0" stopTime="0.00" timeLoss="12.27" rerouteNo="0" devices="tripinfo_route1_73" vType="typeNS" speedFactor="1.06" vaporized=""/>
    <tripinfo id="route0_66" depart="187.00" departLane="1to2_0" departPos="7.10" departSpeed="0.00" departDelay="121.00" arrival="266.00" arrivalLane="h2to4_0" arrivalPos="253.25" arrivalSpeed="12.22" duration="79.00" routeLength="707.74" waitingTime="0.00" waitingCount="0" stopTime="0.00" timeLoss="20.95" rerouteNo="0" devices="tripinfo_route0_66" vType="typeNS" speedFactor="0.91" vaporized=""/>
    <tripinfo id="route2_48" depart="140.00" departLane="1to3_0" departPos="7.10" departSpeed="0.00" departDelay="92.00" arrival="269.00" arrivalLane="h2to4_0" arrivalPos="253.25" arrivalSpeed="12.15" duration="129.00" routeLength="518.76" waitingTime="1.00" waitingCount="1" stopTime="0.00" timeLoss="85.33" rerouteNo="0" devices="tripinfo_route2_48" vType="typeNS" speedFactor="0.88" vaporized=""/>
    <tripinfo id="route0_67" depart="193.00" departLane="1to2_0" departPos="7.10" departSpeed="0.00" departDelay="126.00" arrival="271.00" arrivalLane="h2to4_1" arrivalPos="253.25" arrivalSpeed="12.51" duration="78.00" routeLength="707.74" waitingTime="0.00" waitingCount="0" stopTime="0.00" timeLoss="20.89" rerouteNo="0" devices="tripinfo_route0_67" vType="typeNS" speedFactor="0.91" vaporized=""/>
    <tripinfo id="route1_75" depart="223.00" departLane="1to2_0" departPos="7.10" departSpeed="0.00" departDelay="148.00" arrival="274.00" arrivalLane="2to4_0" arrivalPos="256.62" arrivalSpeed="13.40" duration="51.00" routeLength="517.47" waitingTime="0.00" waitingCount="0" stopTime="0.00" timeLoss="12.06" rerouteNo="0" devices="tripinfo_route1_75" vType="typeNS" speedFactor="0.98" vaporized=""/>
    <tripinfo id="route2_53" depart="146.00" departLane="1to3_0" departPos="7.10" departSpeed="0.00" departDelay="93.00" arrival="276.00" arrivalLane="h2to4_0" arrivalPos="253.25" arrivalSpeed="15.01" duration="130.00" routeLength="518.76" waitingTime="1.00" waitingCount="1" stopTime="0.00" timeLoss="95.44" rerouteNo="0" devices="tripinfo_route2_53" vType="typeNS" speedFactor="1.10" vaporized=""/>
    <tripinfo id="route1_77" depart="229.00" departLane="1to2_0" departPos="7.10" departSpeed="0.00" departDelay="152.00" arrival="279.00" arrivalLane="2to4_0" arrivalPos="256.62" arrivalSpeed="13.40" duration="50.00" routeLength="517.47" waitingTime="0.00" waitingCount="0" stopTime="0.00" timeLoss="11.21" rerouteNo="0" devices="tripinfo_route1_77" vType="typeNS" speedFactor="0.98" vaporized=""/>
    <tripinfo id="route1_78" depart="235.00" departLane="1to2_0" departPos="7.10" departSpeed="0.00" departDelay="157.00" arrival="285.00" arrivalLane="2to4_0" arrivalPos="256.62" arrivalSpeed="13.74" duration="50.00" routeLength="517.47" waitingTime="0.00" waitingCount="0" stopTime="0.00" timeLoss="12.56" rerouteNo="0" devices="tripinfo_route1_78" vType="typeNS" speedFactor="1.01" vaporized=""/>
    <tripinfo id="route2_54" depart="152.00" departLane="1to3_0" departPos="7.10" departSpeed="0.00" departDelay="98.00" arrival="286.00" arrivalLane="h2to4_0" arrivalPos="253.25" arrivalSpeed="13.84" duration="134.00" routeLength="518.76" waitingTime="3.00" waitingCount="3" stopTime="0.00" timeLoss="96.53" rerouteNo="0" devices="tripinfo_route2_54" vType="typeNS" speedFactor="1.00" vaporized=""/>
    <tripinfo id="route0_70" depart="211.00" departLane="1to2_0" departPos="7.10" departSpeed="0.00" departDelay="141.00" arrival="286.00" arrivalLane="h2to4_1" arrivalPos="253.25" arrivalSpeed="14.15" duration="75.00" routeLength="707.74" waitingTime="0.00" waitingCount="0" stopTime="0.00" timeLoss="23.15" rerouteNo="0" devices="tripinfo_route0_70" vType="typeNS" speedFactor="1.02" vaporized=""/>
    <tripinfo id="route2_55" depart="158.00" departLane="1to3_0" departPos="7.10" departSpeed="0.00" departDelay="103.00" arrival="295.00" arrivalLane="h2to4_0" arrivalPos="253.25" arrivalSpeed="13.48" duration="137.00" routeLength="518.76" waitingTime="2.00" waitingCount="2" stopTime="0.00" timeLoss="99.09" rerouteNo="0" devices="tripinfo_route2_55" vType="typeNS" speedFactor="1.00" vaporized=""/>
    <tripinfo id="route1_81" depart="247.00" departLane="1to2_0" departPos="7.10" departSpeed="0.00" departDelay="166.00" arrival="296.00" arrivalLane="2to4_0" arrivalPos="256.62" arrivalSpeed="13.47" duration="49.00" routeLength="517.47" waitingTime="0.00" waitingCount="0" stopTime="0.00" timeLoss="11.47" rerouteNo="0" devices="tripinfo_route1_81" vType="typeNS" speedFactor="1.00" vaporized=""/>
    <tripinfo id="route1_84" depart="252.00" departLane="1to2_0" departPos="7.10" departSpeed="0.00" departDelay="168.00" arrival="298.00" arrivalLane="2to4_0" arrivalPos="256.62" arrivalSpeed="15.80" duration="46.00" routeLength="517.47" waitingTime="0.00" waitingCount="0" stopTime="0.00" timeLoss="13.01" rerouteNo="0" devices="tripinfo_route1_84" vType="typeNS" speedFactor="1.15" vaporized=""/>
    <tripinfo id="route2_57" depart="164.00" departLane="1to3_0" departPos="7.10" departSpeed="0.00" departDelay="107.00" arrival="302.00" arrivalLane="h2to4_0" arrivalPos="253.25" arrivalSpeed="15.53" duration="138.00" routeLength="518.76" waitingTime="1.00" waitingCount="1" stopTime="0.00" timeLoss="104.58" rerouteNo="0" devices="tripinfo_route2_57" vType="typeNS" speedFactor="1.14" vaporized=""/>
</tripinfos>
