<?xml version="1.0" encoding="UTF-8"?>

<!-- generated on Wed Jun 26 12:05:15 2019 by Eclipse SUMO GUI Version v1_2_0+0765-3423b2ab8c
<configuration xmlns:xsi="http://www.w3.org/2001/XMLSchema-instance" xsi:noNamespaceSchemaLocation="http://sumo.dlr.de/xsd/sumoConfiguration.xsd">

    <input>
        <net-file value="data/sample.net.xml"/>
        <route-files value="data/sample1.rou.xml"/>
    </input>

    <output>
        <tripinfo-output value="tripinfo.xml"/>
    </output>

    <time>
        <begin value="0"/>
        <end value="20000"/>
    </time>

    <traci_server>
        <remote-port value="60571"/>
    </traci_server>

</configuration>
-->

<tripinfos xmlns:xsi="http://www.w3.org/2001/XMLSchema-instance" xsi:noNamespaceSchemaLocation="http://sumo.dlr.de/xsd/tripinfo_file.xsd">
    <tripinfo id="route2_0" depart="0.00" departLane="1to3_0" departPos="7.10" departSpeed="0.00" departDelay="0.00" arrival="66.00" arrivalLane="4to_out_0" arrivalPos="47.88" arrivalSpeed="14.59" duration="66.00" routeLength="575.90" waitingTime="1.00" waitingCount="1" stopTime="0.00" timeLoss="25.96" rerouteNo="0" devices="tripinfo_route2_0" vType="typeNS" speedFactor="1.06" vaporized=""/>
    <tripinfo id="route1_2" depart="20.00" departLane="1to2_0" departPos="7.10" departSpeed="0.00" departDelay="0.00" arrival="78.00" arrivalLane="4to_out_0" arrivalPos="47.88" arrivalSpeed="10.27" duration="58.00" routeLength="575.41" waitingTime="0.00" waitingCount="0" stopTime="0.00" timeLoss="16.33" rerouteNo="0" devices="tripinfo_route1_2" vType="typeNS" speedFactor="1.01" vaporized=""/>
    <tripinfo id="route0_1" depart="10.00" departLane="1to2_0" departPos="7.10" departSpeed="0.00" departDelay="0.00" arrival="92.00" arrivalLane="4to_out_0" arrivalPos="47.88" arrivalSpeed="12.72" duration="82.00" routeLength="765.76" waitingTime="0.00" waitingCount="0" stopTime="0.00" timeLoss="22.20" rerouteNo="0" devices="tripinfo_route0_1" vType="typeNS" speedFactor="0.94" vaporized=""/>
    <tripinfo id="route2_4" depart="40.00" departLane="1to3_0" departPos="7.10" departSpeed="0.00" departDelay="0.00" arrival="106.00" arrivalLane="4to_out_0" arrivalPos="47.88" arrivalSpeed="13.98" duration="66.00" routeLength="575.90" waitingTime="1.00" waitingCount="1" stopTime="0.00" timeLoss="25.31" rerouteNo="0" devices="tripinfo_route2_4" vType="typeNS" speedFactor="1.03" vaporized=""/>
    <tripinfo id="route0_3" depart="30.00" departLane="1to2_0" departPos="7.10" departSpeed="0.00" departDelay="0.00" arrival="108.00" arrivalLane="4to_out_0" arrivalPos="47.88" arrivalSpeed="14.70" duration="78.00" routeLength="765.76" waitingTime="0.00" waitingCount="0" stopTime="0.00" timeLoss="25.62" rerouteNo="0" devices="tripinfo_route0_3" vType="typeNS" speedFactor="1.08" vaporized=""/>
    <tripinfo id="route2_5" depart="50.00" departLane="1to3_0" departPos="7.10" departSpeed="0.00" departDelay="0.00" arrival="122.00" arrivalLane="4to_out_0" arrivalPos="47.88" arrivalSpeed="11.39" duration="72.00" routeLength="575.90" waitingTime="1.00" waitingCount="1" stopTime="0.00" timeLoss="21.36" rerouteNo="0" devices="tripinfo_route2_5" vType="typeNS" speedFactor="0.83" vaporized=""/>
    <tripinfo id="route2_6" depart="60.00" departLane="1to3_0" departPos="7.10" departSpeed="0.00" departDelay="0.00" arrival="126.00" arrivalLane="4to_out_0" arrivalPos="47.88" arrivalSpeed="14.26" duration="66.00" routeLength="575.90" waitingTime="1.00" waitingCount="1" stopTime="0.00" timeLoss="25.66" rerouteNo="0" devices="tripinfo_route2_6" vType="typeNS" speedFactor="1.05" vaporized=""/>
    <tripinfo id="route1_8" depart="80.00" departLane="1to2_0" departPos="7.10" departSpeed="0.00" departDelay="0.00" arrival="138.00" arrivalLane="4to_out_0" arrivalPos="47.88" arrivalSpeed="11.72" duration="58.00" routeLength="575.41" waitingTime="0.00" waitingCount="0" stopTime="0.00" timeLoss="13.53" rerouteNo="0" devices="tripinfo_route1_8" vType="typeNS" speedFactor="0.94" vaporized=""/>
    <tripinfo id="route0_7" depart="70.00" departLane="1to2_0" departPos="7.10" departSpeed="0.00" departDelay="0.00" arrival="155.00" arrivalLane="4to_out_0" arrivalPos="47.88" arrivalSpeed="12.04" duration="85.00" routeLength="765.76" waitingTime="0.00" waitingCount="0" stopTime="0.00" timeLoss="20.59" rerouteNo="0" devices="tripinfo_route0_7" vType="typeNS" speedFactor="0.89" vaporized=""/>
    <tripinfo id="route2_11" depart="110.00" departLane="1to3_0" departPos="7.10" departSpeed="0.00" departDelay="0.00" arrival="178.00" arrivalLane="4to_out_0" arrivalPos="47.88" arrivalSpeed="14.25" duration="68.00" routeLength="575.90" waitingTime="1.00" waitingCount="1" stopTime="0.00" timeLoss="27.13" rerouteNo="0" devices="tripinfo_route2_11" vType="typeNS" speedFactor="1.03" vaporized=""/>
    <tripinfo id="route0_9" depart="90.00" departLane="1to2_0" departPos="7.10" departSpeed="0.00" departDelay="0.00" arrival="187.00" arrivalLane="4to_out_0" arrivalPos="47.88" arrivalSpeed="11.57" duration="97.00" routeLength="765.76" waitingTime="5.00" waitingCount="1" stopTime="0.00" timeLoss="30.73" rerouteNo="0" devices="tripinfo_route0_9" vType="typeNS" speedFactor="0.86" vaporized=""/>
    <tripinfo id="route0_10" depart="100.00" departLane="1to2_0" departPos="7.10" departSpeed="0.00" departDelay="0.00" arrival="189.00" arrivalLane="4to_out_0" arrivalPos="47.88" arrivalSpeed="12.61" duration="89.00" routeLength="765.76" waitingTime="2.00" waitingCount="1" stopTime="0.00" timeLoss="36.95" rerouteNo="0" devices="tripinfo_route0_10" vType="typeNS" speedFactor="1.09" vaporized=""/>
    <tripinfo id="route0_12" depart="120.00" departLane="1to2_0" departPos="7.10" departSpeed="0.00" departDelay="0.00" arrival="197.00" arrivalLane="4to_out_0" arrivalPos="47.88" arrivalSpeed="14.34" duration="77.00" routeLength="765.76" waitingTime="0.00" waitingCount="0" stopTime="0.00" timeLoss="23.12" rerouteNo="0" devices="tripinfo_route0_12" vType="typeNS" speedFactor="1.05" vaporized=""/>
    <tripinfo id="route2_14" depart="140.00" departLane="1to3_0" departPos="7.10" departSpeed="0.00" departDelay="0.00" arrival="210.00" arrivalLane="4to_out_0" arrivalPos="47.88" arrivalSpeed="13.56" duration="70.00" routeLength="575.90" waitingTime="1.00" waitingCount="1" stopTime="0.00" timeLoss="27.37" rerouteNo="0" devices="tripinfo_route2_14" vType="typeNS" speedFactor="0.99" vaporized=""/>
    <tripinfo id="route2_15" depart="150.00" departLane="1to3_0" departPos="7.10" departSpeed="0.00" departDelay="0.00" arrival="218.00" arrivalLane="4to_out_0" arrivalPos="47.88" arrivalSpeed="12.71" duration="68.00" routeLength="575.90" waitingTime="1.00" waitingCount="1" stopTime="0.00" timeLoss="23.04" rerouteNo="0" devices="tripinfo_route2_15" vType="typeNS" speedFactor="0.93" vaporized=""/>
    <tripinfo id="route0_13" depart="130.00" departLane="1to2_0" departPos="7.10" departSpeed="0.00" departDelay="0.00" arrival="222.00" arrivalLane="4to_out_0" arrivalPos="47.88" arrivalSpeed="15.33" duration="92.00" routeLength="765.76" waitingTime="8.00" waitingCount="1" stopTime="0.00" timeLoss="41.49" rerouteNo="0" devices="tripinfo_route0_13" vType="typeNS" speedFactor="1.12" vaporized=""/>
    <tripinfo id="route2_17" depart="170.00" departLane="1to3_0" departPos="7.10" departSpeed="0.00" departDelay="0.00" arrival="239.00" arrivalLane="4to_out_0" arrivalPos="47.88" arrivalSpeed="12.69" duration="69.00" routeLength="575.90" waitingTime="1.00" waitingCount="1" stopTime="0.00" timeLoss="24.11" rerouteNo="0" devices="tripinfo_route2_17" vType="typeNS" speedFactor="0.94" vaporized=""/>
    <tripinfo id="route2_18" depart="180.00" departLane="1to3_0" departPos="7.10" departSpeed="0.00" departDelay="0.00" arrival="249.00" arrivalLane="4to_out_0" arrivalPos="47.88" arrivalSpeed="12.88" duration="69.00" routeLength="575.90" waitingTime="1.00" waitingCount="1" stopTime="0.00" timeLoss="23.67" rerouteNo="0" devices="tripinfo_route2_18" vType="typeNS" speedFactor="0.94" vaporized=""/>
    <tripinfo id="route0_16" depart="160.00" departLane="1to2_0" departPos="7.10" departSpeed="0.00" departDelay="0.00" arrival="257.00" arrivalLane="4to_out_0" arrivalPos="47.88" arrivalSpeed="12.18" duration="97.00" routeLength="765.76" waitingTime="5.00" waitingCount="1" stopTime="0.00" timeLoss="31.42" rerouteNo="0" devices="tripinfo_route0_16" vType="typeNS" speedFactor="0.88" vaporized=""/>
    <tripinfo id="route2_20" depart="200.00" departLane="1to3_0" departPos="7.10" departSpeed="0.00" departDelay="0.00" arrival="268.00" arrivalLane="4to_out_0" arrivalPos="47.88" arrivalSpeed="13.98" duration="68.00" routeLength="575.90" waitingTime="1.00" waitingCount="1" stopTime="0.00" timeLoss="26.82" rerouteNo="0" devices="tripinfo_route2_20" vType="typeNS" speedFactor="1.02" vaporized=""/>
    <tripinfo id="route0_19" depart="190.00" departLane="1to2_0" departPos="7.10" departSpeed="0.00" departDelay="0.00" arrival="271.00" arrivalLane="4to_out_0" arrivalPos="47.88" arrivalSpeed="15.83" duration="81.00" routeLength="765.76" waitingTime="0.00" waitingCount="0" stopTime="0.00" timeLoss="31.59" rerouteNo="0" devices="tripinfo_route0_19" vType="typeNS" speedFactor="1.16" vaporized=""/>
    <tripinfo id="route1_22" depart="220.00" departLane="1to2_0" departPos="7.10" departSpeed="0.00" departDelay="0.00" arrival="276.00" arrivalLane="4to_out_0" arrivalPos="47.88" arrivalSpeed="11.67" duration="56.00" routeLength="575.41" waitingTime="0.00" waitingCount="0" stopTime="0.00" timeLoss="13.02" rerouteNo="0" devices="tripinfo_route1_22" vType="typeNS" speedFactor="0.98" vaporized=""/>
    <tripinfo id="route2_21" depart="210.00" departLane="1to3_0" departPos="7.10" departSpeed="0.00" departDelay="0.00" arrival="279.00" arrivalLane="4to_out_0" arrivalPos="47.88" arrivalSpeed="13.68" duration="69.00" routeLength="575.90" waitingTime="1.00" waitingCount="1" stopTime="0.00" timeLoss="26.99" rerouteNo="0" devices="tripinfo_route2_21" vType="typeNS" speedFactor="1.01" vaporized=""/>
    <tripinfo id="route2_24" depart="240.00" departLane="1to3_0" departPos="7.10" departSpeed="0.00" departDelay="0.00" arrival="311.00" arrivalLane="4to_out_0" arrivalPos="47.88" arrivalSpeed="11.11" duration="71.00" routeLength="575.90" waitingTime="1.00" waitingCount="1" stopTime="0.00" timeLoss="20.48" rerouteNo="0" devices="tripinfo_route2_24" vType="typeNS" speedFactor="0.83" vaporized=""/>
    <tripinfo id="route0_23" depart="230.00" departLane="1to2_0" departPos="7.10" departSpeed="0.00" departDelay="0.00" arrival="314.00" arrivalLane="4to_out_0" arrivalPos="47.88" arrivalSpeed="11.97" duration="84.00" routeLength="765.76" waitingTime="0.00" waitingCount="0" stopTime="0.00" timeLoss="20.99" rerouteNo="0" devices="tripinfo_route0_23" vType="typeNS" speedFactor="0.89" vaporized=""/>
    <tripinfo id="route1_25" depart="250.00" departLane="1to2_0" departPos="7.10" departSpeed="0.00" departDelay="0.00" arrival="324.00" arrivalLane="4to_out_0" arrivalPos="47.88" arrivalSpeed="8.01" duration="74.00" routeLength="575.41" waitingTime="5.00" waitingCount="1" stopTime="0.00" timeLoss="26.20" rerouteNo="0" devices="tripinfo_route1_25" vType="typeNS" speedFactor="0.87" vaporized=""/>
    <tripinfo id="route2_28" depart="280.00" departLane="1to3_0" departPos="7.10" departSpeed="0.00" departDelay="0.00" arrival="345.00" arrivalLane="4to_out_0" arrivalPos="47.88" arrivalSpeed="15.43" duration="65.00" routeLength="575.90" waitingTime="1.00" waitingCount="1" stopTime="0.00" timeLoss="27.36" rerouteNo="0" devices="tripinfo_route2_28" vType="typeNS" speedFactor="1.13" vaporized=""/>
    <tripinfo id="route0_26" depart="260.00" departLane="1to2_0" departPos="7.10" departSpeed="0.00" departDelay="0.00" arrival="354.00" arrivalLane="4to_out_0" arrivalPos="47.88" arrivalSpeed="12.55" duration="94.00" routeLength="765.76" waitingTime="6.00" waitingCount="1" stopTime="0.00" timeLoss="31.98" rerouteNo="0" devices="tripinfo_route0_26" vType="typeNS" speedFactor="0.92" vaporized=""/>
    <tripinfo id="route2_29" depart="290.00" departLane="1to3_0" departPos="7.10" departSpeed="0.00" departDelay="0.00" arrival="359.00" arrivalLane="4to_out_0" arrivalPos="47.88" arrivalSpeed="12.62" duration="69.00" routeLength="575.90" waitingTime="1.00" waitingCount="1" stopTime="0.00" timeLoss="23.73" rerouteNo="0" devices="tripinfo_route2_29" vType="typeNS" speedFactor="0.93" vaporized=""/>
    <tripinfo id="route2_30" depart="300.00" departLane="1to3_0" departPos="7.10" departSpeed="0.00" departDelay="0.00" arrival="366.00" arrivalLane="4to_out_0" arrivalPos="47.88" arrivalSpeed="16.29" duration="66.00" routeLength="575.90" waitingTime="1.00" waitingCount="1" stopTime="0.00" timeLoss="30.48" rerouteNo="0" devices="tripinfo_route2_30" vType="typeNS" speedFactor="1.18" vaporized=""/>
    <tripinfo id="route2_31" depart="310.00" departLane="1to3_0" departPos="7.10" departSpeed="0.00" departDelay="0.00" arrival="376.00" arrivalLane="4to_out_0" arrivalPos="47.88" arrivalSpeed="15.97" duration="66.00" routeLength="575.90" waitingTime="1.00" waitingCount="1" stopTime="0.00" timeLoss="29.48" rerouteNo="0" devices="tripinfo_route2_31" vType="typeNS" speedFactor="1.15" vaporized=""/>
    <tripinfo id="route2_32" depart="320.00" departLane="1to3_0" departPos="7.10" departSpeed="0.00" departDelay="0.00" arrival="386.00" arrivalLane="4to_out_0" arrivalPos="47.88" arrivalSpeed="13.60" duration="66.00" routeLength="575.90" waitingTime="1.00" waitingCount="1" stopTime="0.00" timeLoss="24.47" rerouteNo="0" devices="tripinfo_route2_32" vType="typeNS" speedFactor="1.01" vaporized=""/>
    <tripinfo id="route0_27" depart="270.00" departLane="1to2_0" departPos="7.10" departSpeed="0.00" departDelay="0.00" arrival="393.00" arrivalLane="4to_out_0" arrivalPos="47.88" arrivalSpeed="13.15" duration="123.00" routeLength="765.76" waitingTime="31.00" waitingCount="1" stopTime="0.00" timeLoss="62.53" rerouteNo="0" devices="tripinfo_route0_27" vType="typeNS" speedFactor="0.95" vaporized=""/>
    <tripinfo id="route2_33" depart="330.00" departLane="1to3_0" departPos="7.10" departSpeed="0.00" departDelay="0.00" arrival="395.00" arrivalLane="4to_out_0" arrivalPos="47.88" arrivalSpeed="15.73" duration="65.00" routeLength="575.90" waitingTime="1.00" waitingCount="1" stopTime="0.00" timeLoss="28.59" rerouteNo="0" devices="tripinfo_route2_33" vType="typeNS" speedFactor="1.17" vaporized=""/>
    <tripinfo id="route1_34" depart="340.00" departLane="1to2_0" departPos="7.10" departSpeed="0.00" departDelay="0.00" arrival="406.00" arrivalLane="4to_out_0" arrivalPos="47.88" arrivalSpeed="8.14" duration="66.00" routeLength="575.41" waitingTime="1.00" waitingCount="1" stopTime="0.00" timeLoss="23.69" rerouteNo="0" devices="tripinfo_route1_34" vType="typeNS" speedFactor="0.99" vaporized=""/>
    <tripinfo id="route2_35" depart="350.00" departLane="1to3_0" departPos="7.10" departSpeed="0.00" departDelay="0.00" arrival="416.00" arrivalLane="4to_out_0" arrivalPos="47.88" arrivalSpeed="13.93" duration="66.00" routeLength="575.90" waitingTime="1.00" waitingCount="1" stopTime="0.00" timeLoss="25.07" rerouteNo="0" devices="tripinfo_route2_35" vType="typeNS" speedFactor="1.02" vaporized=""/>
    <tripinfo id="route2_36" depart="360.00" departLane="1to3_0" departPos="7.10" departSpeed="0.00" departDelay="0.00" arrival="430.00" arrivalLane="4to_out_0" arrivalPos="47.88" arrivalSpeed="13.23" duration="70.00" routeLength="575.90" waitingTime="1.00" waitingCount="1" stopTime="0.00" timeLoss="26.61" rerouteNo="0" devices="tripinfo_route2_36" vType="typeNS" speedFactor="0.97" vaporized=""/>
    <tripinfo id="route2_37" depart="370.00" departLane="1to3_0" departPos="7.10" departSpeed="0.00" departDelay="0.00" arrival="435.00" arrivalLane="4to_out_0" arrivalPos="47.88" arrivalSpeed="16.31" duration="65.00" routeLength="575.90" waitingTime="1.00" waitingCount="1" stopTime="0.00" timeLoss="29.09" rerouteNo="0" devices="tripinfo_route2_37" vType="typeNS" speedFactor="1.18" vaporized=""/>
    <tripinfo id="route2_38" depart="380.00" departLane="1to3_0" departPos="7.10" departSpeed="0.00" departDelay="0.00" arrival="445.00" arrivalLane="4to_out_0" arrivalPos="47.88" arrivalSpeed="15.28" duration="65.00" routeLength="575.90" waitingTime="1.00" waitingCount="1" stopTime="0.00" timeLoss="26.50" rerouteNo="0" devices="tripinfo_route2_38" vType="typeNS" speedFactor="1.10" vaporized=""/>
    <tripinfo id="route2_39" depart="390.00" departLane="1to3_0" departPos="7.10" departSpeed="0.00" departDelay="0.00" arrival="460.00" arrivalLane="4to_out_0" arrivalPos="47.88" arrivalSpeed="12.23" duration="70.00" routeLength="575.90" waitingTime="1.00" waitingCount="1" stopTime="0.00" timeLoss="23.27" rerouteNo="0" devices="tripinfo_route2_39" vType="typeNS" speedFactor="0.90" vaporized=""/>
    <tripinfo id="route2_40" depart="400.00" departLane="1to3_0" departPos="7.10" departSpeed="0.00" departDelay="0.00" arrival="467.00" arrivalLane="4to_out_0" arrivalPos="47.88" arrivalSpeed="14.25" duration="67.00" routeLength="575.90" waitingTime="1.00" waitingCount="1" stopTime="0.00" timeLoss="26.12" rerouteNo="0" devices="tripinfo_route2_40" vType="typeNS" speedFactor="1.03" vaporized=""/>
    <tripinfo id="route1_43" depart="430.00" departLane="1to2_0" departPos="7.10" departSpeed="0.00" departDelay="0.00" arrival="484.00" arrivalLane="4to_out_0" arrivalPos="47.88" arrivalSpeed="11.86" duration="54.00" routeLength="575.41" waitingTime="0.00" waitingCount="0" stopTime="0.00" timeLoss="13.75" rerouteNo="0" devices="tripinfo_route1_43" vType="typeNS" speedFactor="1.04" vaporized=""/>
    <tripinfo id="route0_41" depart="410.00" departLane="1to2_0" departPos="7.10" departSpeed="0.00" departDelay="0.00" arrival="491.00" arrivalLane="4to_out_0" arrivalPos="47.88" arrivalSpeed="12.95" duration="81.00" routeLength="765.76" waitingTime="0.00" waitingCount="0" stopTime="0.00" timeLoss="21.41" rerouteNo="0" devices="tripinfo_route0_41" vType="typeNS" speedFactor="0.96" vaporized=""/>
    <tripinfo id="route0_42" depart="420.00" departLane="1to2_0" departPos="7.10" departSpeed="0.00" departDelay="0.00" arrival="498.00" arrivalLane="4to_out_0" arrivalPos="47.88" arrivalSpeed="14.96" duration="78.00" routeLength="765.76" waitingTime="0.00" waitingCount="0" stopTime="0.00" timeLoss="25.08" rerouteNo="0" devices="tripinfo_route0_42" vType="typeNS" speedFactor="1.09" vaporized=""/>
    <tripinfo id="route0_44" depart="440.00" departLane="1to2_0" departPos="7.10" departSpeed="0.00" departDelay="0.00" arrival="519.00" arrivalLane="4to_out_0" arrivalPos="47.88" arrivalSpeed="14.13" duration="79.00" routeLength="765.76" waitingTime="0.00" waitingCount="0" stopTime="0.00" timeLoss="23.80" rerouteNo="0" devices="tripinfo_route0_44" vType="typeNS" speedFactor="1.04" vaporized=""/>
    <tripinfo id="route0_45" depart="450.00" departLane="1to2_0" departPos="7.10" departSpeed="0.00" departDelay="0.00" arrival="527.00" arrivalLane="4to_out_0" arrivalPos="47.88" arrivalSpeed="15.03" duration="77.00" routeLength="765.76" waitingTime="0.00" waitingCount="0" stopTime="0.00" timeLoss="24.45" rerouteNo="0" devices="tripinfo_route0_45" vType="typeNS" speedFactor="1.09" vaporized=""/>
    <tripinfo id="route1_47" depart="470.00" departLane="1to2_0" departPos="7.10" departSpeed="0.00" departDelay="0.00" arrival="538.00" arrivalLane="4to_out_0" arrivalPos="47.88" arrivalSpeed="7.46" duration="68.00" routeLength="575.41" waitingTime="0.00" waitingCount="0" stopTime="0.00" timeLoss="21.75" rerouteNo="0" devices="tripinfo_route1_47" vType="typeNS" speedFactor="0.90" vaporized=""/>
    <tripinfo id="route2_48" depart="480.00" departLane="1to3_0" departPos="7.10" departSpeed="0.00" departDelay="0.00" arrival="551.00" arrivalLane="4to_out_0" arrivalPos="47.88" arrivalSpeed="11.84" duration="71.00" routeLength="575.90" waitingTime="1.00" waitingCount="1" stopTime="0.00" timeLoss="23.53" rerouteNo="0" devices="tripinfo_route2_48" vType="typeNS" speedFactor="0.88" vaporized=""/>
    <tripinfo id="route0_46" depart="460.00" departLane="1to2_0" departPos="7.10" departSpeed="0.00" departDelay="0.00" arrival="556.00" arrivalLane="4to_out_0" arrivalPos="47.88" arrivalSpeed="13.67" duration="96.00" routeLength="765.76" waitingTime="10.00" waitingCount="1" stopTime="0.00" timeLoss="39.02" rerouteNo="0" devices="tripinfo_route0_46" vType="typeNS" speedFactor="1.00" vaporized=""/>
    <tripinfo id="route1_49" depart="490.00" departLane="1to2_0" departPos="7.10" departSpeed="0.00" departDelay="0.00" arrival="566.00" arrivalLane="4to_out_0" arrivalPos="47.88" arrivalSpeed="8.47" duration="76.00" routeLength="575.41" waitingTime="6.00" waitingCount="1" stopTime="0.00" timeLoss="26.71" rerouteNo="0" devices="tripinfo_route1_49" vType="typeNS" speedFactor="0.85" vaporized=""/>
    <tripinfo id="route1_50" depart="500.00" departLane="1to2_0" departPos="7.10" departSpeed="0.00" departDelay="0.00" arrival="569.00" arrivalLane="4to_out_0" arrivalPos="47.88" arrivalSpeed="9.24" duration="69.00" routeLength="575.41" waitingTime="0.00" waitingCount="0" stopTime="0.00" timeLoss="19.69" rerouteNo="0" devices="tripinfo_route1_50" vType="typeNS" speedFactor="0.85" vaporized=""/>
    <tripinfo id="route1_52" depart="520.00" departLane="1to2_0" departPos="7.10" departSpeed="0.00" departDelay="0.00" arrival="579.00" arrivalLane="4to_out_0" arrivalPos="47.88" arrivalSpeed="8.95" duration="59.00" routeLength="575.41" waitingTime="0.00" waitingCount="0" stopTime="0.00" timeLoss="18.11" rerouteNo="0" devices="tripinfo_route1_52" vType="typeNS" speedFactor="1.02" vaporized=""/>
    <tripinfo id="route0_51" depart="510.00" departLane="1to2_0" departPos="7.10" departSpeed="0.00" departDelay="0.00" arrival="585.00" arrivalLane="4to_out_0" arrivalPos="47.88" arrivalSpeed="15.96" duration="75.00" routeLength="765.76" waitingTime="0.00" waitingCount="0" stopTime="0.00" timeLoss="26.58" rerouteNo="0" devices="tripinfo_route0_51" vType="typeNS" speedFactor="1.17" vaporized=""/>
    <tripinfo id="route2_53" depart="530.00" departLane="1to3_0" departPos="7.10" departSpeed="0.00" departDelay="0.00" arrival="596.00" arrivalLane="4to_out_0" arrivalPos="47.88" arrivalSpeed="15.05" duration="66.00" routeLength="575.90" waitingTime="1.00" waitingCount="1" stopTime="0.00" timeLoss="27.99" rerouteNo="0" devices="tripinfo_route2_53" vType="typeNS" speedFactor="1.10" vaporized=""/>
    <tripinfo id="route2_54" depart="540.00" departLane="1to3_0" departPos="7.10" departSpeed="0.00" departDelay="0.00" arrival="608.00" arrivalLane="4to_out_0" arrivalPos="47.88" arrivalSpeed="13.93" duration="68.00" routeLength="575.90" waitingTime="1.00" waitingCount="1" stopTime="0.00" timeLoss="26.15" rerouteNo="0" devices="tripinfo_route2_54" vType="typeNS" speedFactor="1.00" vaporized=""/>
    <tripinfo id="route2_55" depart="550.00" departLane="1to3_0" departPos="7.10" departSpeed="0.00" departDelay="0.00" arrival="618.00" arrivalLane="4to_out_0" arrivalPos="47.88" arrivalSpeed="13.51" duration="68.00" routeLength="575.90" waitingTime="1.00" waitingCount="1" stopTime="0.00" timeLoss="25.57" rerouteNo="0" devices="tripinfo_route2_55" vType="typeNS" speedFactor="1.00" vaporized=""/>
    <tripinfo id="route2_57" depart="570.00" departLane="1to3_0" departPos="7.10" departSpeed="0.00" departDelay="0.00" arrival="636.00" arrivalLane="4to_out_0" arrivalPos="47.88" arrivalSpeed="15.71" duration="66.00" routeLength="575.90" waitingTime="1.00" waitingCount="1" stopTime="0.00" timeLoss="28.73" rerouteNo="0" devices="tripinfo_route2_57" vType="typeNS" speedFactor="1.14" vaporized=""/>
    <tripinfo id="route0_56" depart="560.00" departLane="1to2_0" departPos="7.10" departSpeed="0.00" departDelay="0.00" arrival="644.00" arrivalLane="4to_out_0" arrivalPos="47.88" arrivalSpeed="12.37" duration="84.00" routeLength="765.76" waitingTime="0.00" waitingCount="0" stopTime="0.00" timeLoss="21.43" rerouteNo="0" devices="tripinfo_route0_56" vType="typeNS" speedFactor="0.90" vaporized=""/>
    <tripinfo id="route1_59" depart="590.00" departLane="1to2_0" departPos="7.10" departSpeed="0.00" departDelay="0.00" arrival="649.00" arrivalLane="4to_out_0" arrivalPos="47.88" arrivalSpeed="10.02" duration="59.00" routeLength="575.41" waitingTime="0.00" waitingCount="0" stopTime="0.00" timeLoss="15.49" rerouteNo="0" devices="tripinfo_route1_59" vType="typeNS" speedFactor="0.97" vaporized=""/>
    <tripinfo id="route2_60" depart="600.00" departLane="1to3_0" departPos="7.10" departSpeed="0.00" departDelay="0.00" arrival="667.00" arrivalLane="4to_out_0" arrivalPos="47.88" arrivalSpeed="14.67" duration="67.00" routeLength="575.90" waitingTime="1.00" waitingCount="1" stopTime="0.00" timeLoss="27.98" rerouteNo="0" devices="tripinfo_route2_60" vType="typeNS" speedFactor="1.08" vaporized=""/>
    <tripinfo id="route0_58" depart="580.00" departLane="1to2_0" departPos="7.10" departSpeed="0.00" departDelay="0.00" arrival="673.00" arrivalLane="4to_out_0" arrivalPos="47.88" arrivalSpeed="14.15" duration="93.00" routeLength="765.76" waitingTime="8.00" waitingCount="1" stopTime="0.00" timeLoss="37.40" rerouteNo="0" devices="tripinfo_route0_58" vType="typeNS" speedFactor="1.02" vaporized=""/>
    <tripinfo id="route2_61" depart="610.00" departLane="1to3_0" departPos="7.10" departSpeed="0.00" departDelay="0.00" arrival="678.00" arrivalLane="4to_out_0" arrivalPos="47.88" arrivalSpeed="15.40" duration="68.00" routeLength="575.90" waitingTime="1.00" waitingCount="1" stopTime="0.00" timeLoss="30.29" rerouteNo="0" devices="tripinfo_route2_61" vType="typeNS" speedFactor="1.12" vaporized=""/>
    <tripinfo id="route2_62" depart="620.00" departLane="1to3_0" departPos="7.10" departSpeed="0.00" departDelay="0.00" arrival="687.00" arrivalLane="4to_out_0" arrivalPos="47.88" arrivalSpeed="13.98" duration="67.00" routeLength="575.90" waitingTime="1.00" waitingCount="1" stopTime="0.00" timeLoss="25.43" rerouteNo="0" devices="tripinfo_route2_62" vType="typeNS" speedFactor="1.02" vaporized=""/>
    <tripinfo id="route2_63" depart="630.00" departLane="1to3_0" departPos="7.10" departSpeed="0.00" departDelay="0.00" arrival="697.00" arrivalLane="4to_out_0" arrivalPos="47.88" arrivalSpeed="13.59" duration="67.00" routeLength="575.90" waitingTime="1.00" waitingCount="1" stopTime="0.00" timeLoss="24.87" rerouteNo="0" devices="tripinfo_route2_63" vType="typeNS" speedFactor="0.99" vaporized=""/>
    <tripinfo id="route2_64" depart="640.00" departLane="1to3_0" departPos="7.10" departSpeed="0.00" departDelay="0.00" arrival="708.00" arrivalLane="4to_out_0" arrivalPos="47.88" arrivalSpeed="12.79" duration="68.00" routeLength="575.90" waitingTime="1.00" waitingCount="1" stopTime="0.00" timeLoss="23.57" rerouteNo="0" devices="tripinfo_route2_64" vType="typeNS" speedFactor="0.94" vaporized=""/>
    <tripinfo id="route2_65" depart="650.00" departLane="1to3_0" departPos="7.10" departSpeed="0.00" departDelay="0.00" arrival="719.00" arrivalLane="4to_out_0" arrivalPos="47.88" arrivalSpeed="12.03" duration="69.00" routeLength="575.90" waitingTime="1.00" waitingCount="1" stopTime="0.00" timeLoss="21.52" rerouteNo="0" devices="tripinfo_route2_65" vType="typeNS" speedFactor="0.88" vaporized=""/>
    <tripinfo id="route1_68" depart="680.00" departLane="1to2_0" departPos="7.10" departSpeed="0.00" departDelay="0.00" arrival="737.00" arrivalLane="4to_out_0" arrivalPos="47.88" arrivalSpeed="10.21" duration="57.00" routeLength="575.41" waitingTime="0.00" waitingCount="0" stopTime="0.00" timeLoss="16.51" rerouteNo="0" devices="tripinfo_route1_68" vType="typeNS" speedFactor="1.04" vaporized=""/>
    <tripinfo id="route0_66" depart="660.00" departLane="1to2_0" departPos="7.10" departSpeed="0.00" departDelay="0.00" arrival="743.00" arrivalLane="4to_out_0" arrivalPos="47.88" arrivalSpeed="12.25" duration="83.00" routeLength="765.76" waitingTime="0.00" waitingCount="0" stopTime="0.00" timeLoss="20.37" rerouteNo="0" devices="tripinfo_route0_66" vType="typeNS" speedFactor="0.91" vaporized=""/>
    <tripinfo id="route1_69" depart="690.00" departLane="1to2_0" departPos="7.10" departSpeed="0.00" departDelay="0.00" arrival="748.00" arrivalLane="4to_out_0" arrivalPos="47.88" arrivalSpeed="9.33" duration="58.00" routeLength="575.41" waitingTime="0.00" waitingCount="0" stopTime="0.00" timeLoss="17.20" rerouteNo="0" devices="tripinfo_route1_69" vType="typeNS" speedFactor="1.02" vaporized=""/>
    <tripinfo id="route0_67" depart="670.00" departLane="1to2_0" departPos="7.10" departSpeed="0.00" departDelay="0.00" arrival="753.00" arrivalLane="4to_out_0" arrivalPos="47.88" arrivalSpeed="12.45" duration="83.00" routeLength="765.76" waitingTime="0.00" waitingCount="0" stopTime="0.00" timeLoss="21.48" rerouteNo="0" devices="tripinfo_route0_67" vType="typeNS" speedFactor="0.91" vaporized=""/>
    <tripinfo id="route2_71" depart="710.00" departLane="1to3_0" departPos="7.10" departSpeed="0.00" departDelay="0.00" arrival="776.00" arrivalLane="4to_out_0" arrivalPos="47.88" arrivalSpeed="13.28" duration="66.00" routeLength="575.90" waitingTime="1.00" waitingCount="1" stopTime="0.00" timeLoss="22.73" rerouteNo="0" devices="tripinfo_route2_71" vType="typeNS" speedFactor="0.97" vaporized=""/>
    <tripinfo id="route1_73" depart="730.00" departLane="1to2_0" departPos="7.10" departSpeed="0.00" departDelay="0.00" arrival="789.00" arrivalLane="4to_out_0" arrivalPos="47.88" arrivalSpeed="9.37" duration="59.00" routeLength="575.41" waitingTime="0.00" waitingCount="0" stopTime="0.00" timeLoss="19.09" rerouteNo="0" devices="tripinfo_route1_73" vType="typeNS" speedFactor="1.06" vaporized=""/>
    <tripinfo id="route2_72" depart="720.00" departLane="1to3_0" departPos="7.10" departSpeed="0.00" departDelay="0.00" arrival="791.00" arrivalLane="4to_out_0" arrivalPos="47.88" arrivalSpeed="10.47" duration="71.00" routeLength="575.90" waitingTime="1.00" waitingCount="1" stopTime="0.00" timeLoss="26.17" rerouteNo="0" devices="tripinfo_route2_72" vType="typeNS" speedFactor="0.94" vaporized=""/>