<?xml version="1.0" encoding="UTF-8"?>

<!-- generated on Thu Jun 27 13:46:40 2019 by Eclipse SUMO GUI Version v1_2_0+0765-3423b2ab8c
<configuration xmlns:xsi="http://www.w3.org/2001/XMLSchema-instance" xsi:noNamespaceSchemaLocation="http://sumo.dlr.de/xsd/sumoConfiguration.xsd">

    <input>
        <net-file value="data/sample.net.xml"/>
        <route-files value="data/sample1.rou.xml"/>
    </input>

    <output>
        <tripinfo-output value="tripinfo.xml"/>
    </output>

    <time>
        <begin value="0"/>
        <end value="20000"/>
    </time>

    <traci_server>
        <remote-port value="50288"/>
    </traci_server>

</configuration>
-->

<tripinfos xmlns:xsi="http://www.w3.org/2001/XMLSchema-instance" xsi:noNamespaceSchemaLocation="http://sumo.dlr.de/xsd/tripinfo_file.xsd">
    <tripinfo id="route2_0" depart="0.00" departLane="1to3_0" departPos="7.10" departSpeed="0.00" departDelay="0.00" arrival="54.00" arrivalLane="5to4_0" arrivalPos="188.15" arrivalSpeed="14.72" duration="54.00" routeLength="523.08" waitingTime="0.00" waitingCount="0" stopTime="0.00" timeLoss="18.29" rerouteNo="0" devices="tripinfo_route2_0" vType="typeNS" speedFactor="1.06" vaporized=""/>
    <tripinfo id="route1_2" depart="7.00" departLane="1to2_0" departPos="7.10" departSpeed="0.00" departDelay="5.00" arrival="56.00" arrivalLane="2to4_0" arrivalPos="258.80" arrivalSpeed="13.88" duration="49.00" routeLength="519.65" waitingTime="0.00" waitingCount="0" stopTime="0.00" timeLoss="11.46" rerouteNo="0" devices="tripinfo_route1_2" vType="typeNS" speedFactor="1.01" vaporized=""/>
    <tripinfo id="route2_4" depart="6.00" departLane="1to3_0" departPos="7.10" departSpeed="0.00" departDelay="2.00" arrival="61.00" arrivalLane="5to4_0" arrivalPos="188.15" arrivalSpeed="14.29" duration="55.00" routeLength="523.08" waitingTime="0.00" waitingCount="0" stopTime="0.00" timeLoss="18.22" rerouteNo="0" devices="tripinfo_route2_4" vType="typeNS" speedFactor="1.03" vaporized=""/>
    <tripinfo id="route2_5" depart="12.00" departLane="1to3_0" departPos="7.10" departSpeed="0.00" departDelay="7.00" arrival="73.00" arrivalLane="5to4_0" arrivalPos="188.15" arrivalSpeed="11.34" duration="61.00" routeLength="523.08" waitingTime="0.00" waitingCount="0" stopTime="0.00" timeLoss="15.54" rerouteNo="0" devices="tripinfo_route2_5" vType="typeNS" speedFactor="0.83" vaporized=""/>
    <tripinfo id="route2_6" depart="18.00" departLane="1to3_0" departPos="7.10" departSpeed="0.00" departDelay="12.00" arrival="75.00" arrivalLane="5to4_0" arrivalPos="188.15" arrivalSpeed="13.47" duration="57.00" routeLength="523.08" waitingTime="0.00" waitingCount="0" stopTime="0.00" timeLoss="20.68" rerouteNo="0" devices="tripinfo_route2_6" vType="typeNS" speedFactor="1.05" vaporized=""/>
    <tripinfo id="route1_8" depart="25.00" departLane="1to2_0" departPos="7.10" departSpeed="0.00" departDelay="17.00" arrival="77.00" arrivalLane="2to4_0" arrivalPos="258.80" arrivalSpeed="12.92" duration="52.00" routeLength="519.65" waitingTime="0.00" waitingCount="0" stopTime="0.00" timeLoss="11.45" rerouteNo="0" devices="tripinfo_route1_8" vType="typeNS" speedFactor="0.94" vaporized=""/>
    <tripinfo id="route0_1" depart="1.00" departLane="1to2_0" departPos="7.10" departSpeed="0.00" departDelay="0.00" arrival="79.00" arrivalLane="5to4_0" arrivalPos="188.15" arrivalSpeed="12.73" duration="78.00" routeLength="711.50" waitingTime="0.00" waitingCount="0" stopTime="0.00" timeLoss="22.07" rerouteNo="0" devices="tripinfo_route0_1" vType="typeNS" speedFactor="0.94" vaporized=""/>
    <tripinfo id="route2_11" depart="24.00" departLane="1to3_0" departPos="7.10" departSpeed="0.00" departDelay="13.00" arrival="82.00" arrivalLane="5to4_0" arrivalPos="188.15" arrivalSpeed="14.05" duration="58.00" routeLength="523.08" waitingTime="0.00" waitingCount="0" stopTime="0.00" timeLoss="21.26" rerouteNo="0" devices="tripinfo_route2_11" vType="typeNS" speedFactor="1.03" vaporized=""/>
    <tripinfo id="route2_14" depart="30.00" departLane="1to3_0" departPos="7.10" departSpeed="0.00" departDelay="16.00" arrival="87.00" arrivalLane="5to4_0" arrivalPos="188.15" arrivalSpeed="13.74" duration="57.00" routeLength="523.08" waitingTime="0.00" waitingCount="0" stopTime="0.00" timeLoss="18.07" rerouteNo="0" devices="tripinfo_route2_14" vType="typeNS" speedFactor="0.99" vaporized=""/>
    <tripinfo id="route0_3" depart="12.00" departLane="1to2_0" departPos="7.10" departSpeed="0.00" departDelay="9.00" arrival="94.00" arrivalLane="5to4_0" arrivalPos="188.15" arrivalSpeed="14.83" duration="82.00" routeLength="711.50" waitingTime="0.00" waitingCount="0" stopTime="0.00" timeLoss="32.11" rerouteNo="0" devices="tripinfo_route0_3" vType="typeNS" speedFactor="1.08" vaporized=""/>
    <tripinfo id="route2_17" depart="42.00" departLane="1to3_0" departPos="7.10" departSpeed="0.00" departDelay="25.00" arrival="99.00" arrivalLane="5to4_0" arrivalPos="188.15" arrivalSpeed="12.91" duration="57.00" routeLength="523.08" waitingTime="0.00" waitingCount="0" stopTime="0.00" timeLoss="16.13" rerouteNo="0" devices="tripinfo_route2_17" vType="typeNS" speedFactor="0.94" vaporized=""/>
    <tripinfo id="route2_15" depart="36.00" departLane="1to3_0" departPos="7.10" departSpeed="0.00" departDelay="21.00" arrival="104.00" arrivalLane="5to4_0" arrivalPos="188.15" arrivalSpeed="12.54" duration="68.00" routeLength="523.08" waitingTime="0.00" waitingCount="0" stopTime="0.00" timeLoss="26.40" rerouteNo="0" devices="tripinfo_route2_15" vType="typeNS" speedFactor="0.93" vaporized=""/>
    <tripinfo id="route0_7" depart="19.00" departLane="1to2_0" departPos="7.10" departSpeed="0.00" departDelay="12.00" arrival="107.00" arrivalLane="5to4_0" arrivalPos="188.15" arrivalSpeed="12.12" duration="88.00" routeLength="711.50" waitingTime="0.00" waitingCount="0" stopTime="0.00" timeLoss="28.67" rerouteNo="0" devices="tripinfo_route0_7" vType="typeNS" speedFactor="0.89" vaporized=""/>
    <tripinfo id="route2_18" depart="47.00" departLane="1to3_0" departPos="7.10" departSpeed="0.00" departDelay="29.00" arrival="112.00" arrivalLane="5to4_0" arrivalPos="188.15" arrivalSpeed="12.75" duration="65.00" routeLength="523.08" waitingTime="0.00" waitingCount="0" stopTime="0.00" timeLoss="24.16" rerouteNo="0" devices="tripinfo_route2_18" vType="typeNS" speedFactor="0.94" vaporized=""/>
    <tripinfo id="route2_20" depart="53.00" departLane="1to3_0" departPos="7.10" departSpeed="0.00" departDelay="33.00" arrival="114.00" arrivalLane="5to4_0" arrivalPos="188.15" arrivalSpeed="13.97" duration="61.00" routeLength="523.08" waitingTime="0.00" waitingCount="0" stopTime="0.00" timeLoss="23.14" rerouteNo="0" devices="tripinfo_route2_20" vType="typeNS" speedFactor="1.02" vaporized=""/>
    <tripinfo id="route2_21" depart="59.00" departLane="1to3_0" departPos="7.10" departSpeed="0.00" departDelay="38.00" arrival="115.00" arrivalLane="5to4_0" arrivalPos="188.15" arrivalSpeed="13.75" duration="56.00" routeLength="523.08" waitingTime="0.00" waitingCount="0" stopTime="0.00" timeLoss="18.65" rerouteNo="0" devices="tripinfo_route2_21" vType="typeNS" speedFactor="1.01" vaporized=""/>
    <tripinfo id="route1_22" depart="67.00" departLane="1to2_0" departPos="7.10" departSpeed="0.00" departDelay="45.00" arrival="119.00" arrivalLane="2to4_0" arrivalPos="258.80" arrivalSpeed="13.39" duration="52.00" routeLength="519.65" waitingTime="0.00" waitingCount="0" stopTime="0.00" timeLoss="12.64" rerouteNo="0" devices="tripinfo_route1_22" vType="typeNS" speedFactor="0.98" vaporized=""/>
    <tripinfo id="route0_9" depart="31.00" departLane="1to2_0" departPos="7.10" departSpeed="0.00" departDelay="22.00" arrival="122.00" arrivalLane="5to4_0" arrivalPos="188.15" arrivalSpeed="11.57" duration="91.00" routeLength="711.50" waitingTime="1.00" waitingCount="1" stopTime="0.00" timeLoss="28.36" rerouteNo="0" devices="tripinfo_route0_9" vType="typeNS" speedFactor="0.86" vaporized=""/>
    <tripinfo id="route0_10" depart="37.00" departLane="1to2_0" departPos="7.10" departSpeed="0.00" departDelay="27.00" arrival="124.00" arrivalLane="5to4_0" arrivalPos="188.15" arrivalSpeed="13.09" duration="87.00" routeLength="711.50" waitingTime="1.00" waitingCount="1" stopTime="0.00" timeLoss="38.14" rerouteNo="0" devices="tripinfo_route0_10" vType="typeNS" speedFactor="1.09" vaporized=""/>
    <tripinfo id="route0_12" depart="43.00" departLane="1to2_0" departPos="7.10" departSpeed="0.00" departDelay="31.00" arrival="126.00" arrivalLane="5to4_0" arrivalPos="188.15" arrivalSpeed="13.52" duration="83.00" routeLength="711.50" waitingTime="0.00" waitingCount="0" stopTime="0.00" timeLoss="32.24" rerouteNo="0" devices="tripinfo_route0_12" vType="typeNS" speedFactor="1.05" vaporized=""/>
    <tripinfo id="route2_24" depart="65.00" departLane="1to3_0" departPos="7.10" departSpeed="0.00" departDelay="41.00" arrival="133.00" arrivalLane="5to4_0" arrivalPos="188.15" arrivalSpeed="11.14" duration="68.00" routeLength="523.08" waitingTime="0.00" waitingCount="0" stopTime="0.00" timeLoss="22.26" rerouteNo="0" devices="tripinfo_route2_24" vType="typeNS" speedFactor="0.83" vaporized=""/>
    <tripinfo id="route1_25" depart="79.00" departLane="1to2_0" departPos="7.10" departSpeed="0.00" departDelay="54.00" arrival="133.00" arrivalLane="2to4_0" arrivalPos="258.80" arrivalSpeed="11.77" duration="54.00" routeLength="519.65" waitingTime="0.00" waitingCount="0" stopTime="0.00" timeLoss="10.78" rerouteNo="0" devices="tripinfo_route1_25" vType="typeNS" speedFactor="0.87" vaporized=""/>
    <tripinfo id="route0_13" depart="49.00" departLane="1to2_0" departPos="7.10" departSpeed="0.00" departDelay="36.00" arrival="135.00" arrivalLane="5to4_0" arrivalPos="188.15" arrivalSpeed="12.60" duration="86.00" routeLength="711.50" waitingTime="1.00" waitingCount="1" stopTime="0.00" timeLoss="38.42" rerouteNo="0" devices="tripinfo_route0_13" vType="typeNS" speedFactor="1.12" vaporized=""/>
    <tripinfo id="route0_16" depart="55.00" departLane="1to2_0" departPos="7.10" departSpeed="0.00" departDelay="39.00" arrival="137.00" arrivalLane="5to4_0" arrivalPos="188.15" arrivalSpeed="11.86" duration="82.00" routeLength="711.50" waitingTime="0.00" waitingCount="0" stopTime="0.00" timeLoss="22.17" rerouteNo="0" devices="tripinfo_route0_16" vType="typeNS" speedFactor="0.88" vaporized=""/>
    <tripinfo id="route0_19" depart="61.00" departLane="1to2_0" departPos="7.10" departSpeed="0.00" departDelay="42.00" arrival="139.00" arrivalLane="5to4_0" arrivalPos="188.15" arrivalSpeed="13.42" duration="78.00" routeLength="711.50" waitingTime="0.00" waitingCount="0" stopTime="0.00" timeLoss="32.35" rerouteNo="0" devices="tripinfo_route0_19" vType="typeNS" speedFactor="1.16" vaporized=""/>
    <tripinfo id="route2_28" depart="70.00" departLane="1to3_0" departPos="7.10" departSpeed="0.00" departDelay="42.00" arrival="143.00" arrivalLane="5to4_0" arrivalPos="188.15" arrivalSpeed="15.63" duration="73.00" routeLength="523.08" waitingTime="1.00" waitingCount="1" stopTime="0.00" timeLoss="39.50" rerouteNo="0" devices="tripinfo_route2_28" vType="typeNS" speedFactor="1.13" vaporized=""/>
    <tripinfo id="route1_34" depart="97.00" departLane="1to2_0" departPos="7.10" departSpeed="0.00" departDelay="63.00" arrival="146.00" arrivalLane="2to4_0" arrivalPos="258.80" arrivalSpeed="13.65" duration="49.00" routeLength="519.65" waitingTime="0.00" waitingCount="0" stopTime="0.00" timeLoss="11.06" rerouteNo="0" devices="tripinfo_route1_34" vType="typeNS" speedFactor="0.99" vaporized=""/>
    <tripinfo id="route2_29" depart="76.00" departLane="1to3_0" departPos="7.10" departSpeed="0.00" departDelay="47.00" arrival="147.00" arrivalLane="5to4_0" arrivalPos="188.15" arrivalSpeed="12.88" duration="71.00" routeLength="523.08" waitingTime="0.00" waitingCount="0" stopTime="0.00" timeLoss="29.90" rerouteNo="0" devices="tripinfo_route2_29" vType="typeNS" speedFactor="0.93" vaporized=""/>
    <tripinfo id="route2_30" depart="82.00" departLane="1to3_0" departPos="7.10" departSpeed="0.00" departDelay="52.00" arrival="149.00" arrivalLane="5to4_0" arrivalPos="188.15" arrivalSpeed="14.77" duration="67.00" routeLength="523.08" waitingTime="0.00" waitingCount="0" stopTime="0.00" timeLoss="34.12" rerouteNo="0" devices="tripinfo_route2_30" vType="typeNS" speedFactor="1.18" vaporized=""/>
    <tripinfo id="route2_31" depart="88.00" departLane="1to3_0" departPos="7.10" departSpeed="0.00" departDelay="57.00" arrival="151.00" arrivalLane="5to4_0" arrivalPos="188.15" arrivalSpeed="15.71" duration="63.00" routeLength="523.08" waitingTime="0.00" waitingCount="0" stopTime="0.00" timeLoss="29.58" rerouteNo="0" devices="tripinfo_route2_31" vType="typeNS" speedFactor="1.15" vaporized=""/>
    <tripinfo id="route2_32" depart="94.00" departLane="1to3_0" departPos="7.10" departSpeed="0.00" departDelay="62.00" arrival="154.00" arrivalLane="5to4_0" arrivalPos="188.15" arrivalSpeed="13.80" duration="60.00" routeLength="523.08" waitingTime="0.00" waitingCount="0" stopTime="0.00" timeLoss="21.63" rerouteNo="0" devices="tripinfo_route2_32" vType="typeNS" speedFactor="1.01" vaporized=""/>
    <tripinfo id="route2_33" depart="100.00" departLane="1to3_0" departPos="7.10" departSpeed="0.00" departDelay="67.00" arrival="156.00" arrivalLane="5to4_0" arrivalPos="188.15" arrivalSpeed="14.77" duration="56.00" routeLength="523.08" waitingTime="0.00" waitingCount="0" stopTime="0.00" timeLoss="23.46" rerouteNo="0" devices="tripinfo_route2_33" vType="typeNS" speedFactor="1.17" vaporized=""/>
    <tripinfo id="route0_23" depart="73.00" departLane="1to2_0" departPos="7.10" departSpeed="0.00" departDelay="50.00" arrival="162.00" arrivalLane="5to4_0" arrivalPos="188.15" arrivalSpeed="12.11" duration="89.00" routeLength="711.50" waitingTime="1.00" waitingCount="1" stopTime="0.00" timeLoss="29.39" rerouteNo="0" devices="tripinfo_route0_23" vType="typeNS" speedFactor="0.89" vaporized=""/>
    <tripinfo id="route2_35" depart="106.00" departLane="1to3_0" departPos="7.10" departSpeed="0.00" departDelay="71.00" arrival="164.00" arrivalLane="5to4_0" arrivalPos="188.15" arrivalSpeed="13.16" duration="58.00" routeLength="523.08" waitingTime="0.00" waitingCount="0" stopTime="0.00" timeLoss="20.60" rerouteNo="0" devices="tripinfo_route2_35" vType="typeNS" speedFactor="1.02" vaporized=""/>
    <tripinfo id="route1_43" depart="115.00" departLane="1to2_0" departPos="7.10" departSpeed="0.00" departDelay="72.00" arrival="164.00" arrivalLane="2to4_0" arrivalPos="258.80" arrivalSpeed="14.37" duration="49.00" routeLength="519.65" waitingTime="0.00" waitingCount="0" stopTime="0.00" timeLoss="12.07" rerouteNo="0" devices="tripinfo_route1_43" vType="typeNS" speedFactor="1.04" vaporized=""/>
    <tripinfo id="route0_26" depart="85.00" departLane="1to2_0" departPos="7.10" departSpeed="0.00" departDelay="59.00" arrival="171.00" arrivalLane="5to4_0" arrivalPos="188.15" arrivalSpeed="12.47" duration="86.00" routeLength="711.50" waitingTime="0.00" waitingCount="0" stopTime="0.00" timeLoss="28.39" rerouteNo="0" devices="tripinfo_route0_26" vType="typeNS" speedFactor="0.92" vaporized=""/>
    <tripinfo id="route2_36" depart="112.00" departLane="1to3_0" departPos="7.10" departSpeed="0.00" departDelay="76.00" arrival="175.00" arrivalLane="5to4_0" arrivalPos="188.15" arrivalSpeed="13.12" duration="63.00" routeLength="523.08" waitingTime="0.00" waitingCount="0" stopTime="0.00" timeLoss="24.03" rerouteNo="0" devices="tripinfo_route2_36" vType="typeNS" speedFactor="0.97" vaporized=""/>
    <tripinfo id="route2_38" depart="123.00" departLane="1to3_0" departPos="7.10" departSpeed="0.00" departDelay="85.00" arrival="177.00" arrivalLane="5to4_0" arrivalPos="188.15" arrivalSpeed="14.51" duration="54.00" routeLength="523.08" waitingTime="0.00" waitingCount="0" stopTime="0.00" timeLoss="19.32" rerouteNo="0" devices="tripinfo_route2_38" vType="typeNS" speedFactor="1.10" vaporized=""/>
</tripinfos>
