<?xml version="1.0" encoding="UTF-8"?>

<!-- generated on Tue Jul  2 20:56:50 2019 by Eclipse SUMO Version v1_2_0+0765-3423b2ab8c
<configuration xmlns:xsi="http://www.w3.org/2001/XMLSchema-instance" xsi:noNamespaceSchemaLocation="http://sumo.dlr.de/xsd/sumoConfiguration.xsd">

    <input>
        <net-file value="data/diamond.net.xml"/>
        <route-files value="data/diamond.rou.xml"/>
    </input>

    <output>
        <tripinfo-output value="data/tripinfo.xml"/>
    </output>

    <time>
        <begin value="0"/>
        <end value="20000"/>
    </time>

    <traci_server>
        <remote-port value="58556"/>
    </traci_server>

</configuration>
-->

<tripinfos xmlns:xsi="http://www.w3.org/2001/XMLSchema-instance" xsi:noNamespaceSchemaLocation="http://sumo.dlr.de/xsd/tripinfo_file.xsd">
</tripinfos>
