<?xml version="1.0" encoding="UTF-8"?>

<<<<<<< HEAD
<!-- generated on Tue Jul  2 20:56:50 2019 by Eclipse SUMO Version v1_2_0+0765-3423b2ab8c
=======
<!-- generated on Tue 02 Jul 2019 09:04:43 PM PDT by Eclipse SUMO GUI Version v1_2_0+0412-15614fd968
>>>>>>> 0b86f1158be2e7aae1db3d12705deaeb300f4488
<configuration xmlns:xsi="http://www.w3.org/2001/XMLSchema-instance" xsi:noNamespaceSchemaLocation="http://sumo.dlr.de/xsd/sumoConfiguration.xsd">

    <input>
        <net-file value="data/diamond.net.xml"/>
        <route-files value="data/diamond.rou.xml"/>
    </input>

    <output>
        <tripinfo-output value="data/tripinfo.xml"/>
    </output>

    <time>
        <begin value="0"/>
        <end value="20000"/>
    </time>

    <traci_server>
<<<<<<< HEAD
        <remote-port value="58556"/>
=======
        <remote-port value="56769"/>
>>>>>>> 0b86f1158be2e7aae1db3d12705deaeb300f4488
    </traci_server>

</configuration>
-->

<tripinfos xmlns:xsi="http://www.w3.org/2001/XMLSchema-instance" xsi:noNamespaceSchemaLocation="http://sumo.dlr.de/xsd/tripinfo_file.xsd">
<<<<<<< HEAD
=======
    <tripinfo id="veh000000" depart="0.00" departLane="in_to1_0" departPos="5.10" departSpeed="10.00" departDelay="0.00" arrival="42.00" arrivalLane="4to_out_1" arrivalPos="53.38" arrivalSpeed="16.67" duration="42.00" routeLength="633.43" waitingTime="0.00" waitingCount="0" stopTime="0.00" timeLoss="3.18" rerouteNo="0" devices="tripinfo_veh000000" vType="vehicle" speedFactor="1.06" vaporized=""/>
    <tripinfo id="veh000001" depart="2.00" departLane="in_to1_0" departPos="5.10" departSpeed="10.00" departDelay="1.00" arrival="44.00" arrivalLane="4to_out_0" arrivalPos="53.38" arrivalSpeed="16.30" duration="42.00" routeLength="634.00" waitingTime="0.00" waitingCount="0" stopTime="0.00" timeLoss="3.48" rerouteNo="0" devices="tripinfo_veh000001" vType="vehicle" speedFactor="0.94" vaporized=""/>
    <tripinfo id="veh000002" depart="4.00" departLane="in_to1_0" departPos="5.10" departSpeed="10.00" departDelay="2.00" arrival="46.00" arrivalLane="4to_out_0" arrivalPos="53.38" arrivalSpeed="16.30" duration="42.00" routeLength="634.00" waitingTime="0.00" waitingCount="0" stopTime="0.00" timeLoss="3.31" rerouteNo="0" devices="tripinfo_veh000002" vType="vehicle" speedFactor="1.01" vaporized=""/>
    <tripinfo id="veh000003" depart="6.00" departLane="in_to1_0" departPos="5.10" departSpeed="10.00" departDelay="3.00" arrival="48.00" arrivalLane="4to_out_0" arrivalPos="53.38" arrivalSpeed="16.67" duration="42.00" routeLength="634.00" waitingTime="0.00" waitingCount="0" stopTime="0.00" timeLoss="3.57" rerouteNo="0" devices="tripinfo_veh000003" vType="vehicle" speedFactor="1.08" vaporized=""/>
    <tripinfo id="veh000004" depart="8.00" departLane="in_to1_0" departPos="5.10" departSpeed="10.00" departDelay="4.00" arrival="51.00" arrivalLane="4to_out_1" arrivalPos="53.38" arrivalSpeed="16.58" duration="43.00" routeLength="633.43" waitingTime="0.00" waitingCount="0" stopTime="0.00" timeLoss="4.18" rerouteNo="0" devices="tripinfo_veh000004" vType="vehicle" speedFactor="1.03" vaporized=""/>
    <tripinfo id="veh000006" depart="12.00" departLane="in_to1_0" departPos="5.10" departSpeed="10.00" departDelay="6.00" arrival="59.00" arrivalLane="4to_out_1" arrivalPos="53.38" arrivalSpeed="16.51" duration="47.00" routeLength="633.43" waitingTime="0.00" waitingCount="0" stopTime="0.00" timeLoss="8.48" rerouteNo="0" devices="tripinfo_veh000006" vType="vehicle" speedFactor="1.05" vaporized=""/>
    <tripinfo id="veh000007" depart="14.00" departLane="in_to1_0" departPos="5.10" departSpeed="10.00" departDelay="7.00" arrival="61.00" arrivalLane="4to_out_1" arrivalPos="53.38" arrivalSpeed="15.46" duration="47.00" routeLength="633.43" waitingTime="0.00" waitingCount="0" stopTime="0.00" timeLoss="8.33" rerouteNo="0" devices="tripinfo_veh000007" vType="vehicle" speedFactor="0.89" vaporized=""/>
    <tripinfo id="veh000010" depart="20.00" departLane="in_to1_0" departPos="5.10" departSpeed="10.00" departDelay="10.00" arrival="61.00" arrivalLane="4to_out_0" arrivalPos="53.38" arrivalSpeed="16.41" duration="41.00" routeLength="634.00" waitingTime="0.00" waitingCount="0" stopTime="0.00" timeLoss="2.63" rerouteNo="0" devices="tripinfo_veh000010" vType="vehicle" speedFactor="1.09" vaporized=""/>
    <tripinfo id="veh000008" depart="16.00" departLane="in_to1_0" departPos="5.10" departSpeed="10.00" departDelay="8.00" arrival="63.00" arrivalLane="4to_out_1" arrivalPos="53.38" arrivalSpeed="16.23" duration="47.00" routeLength="633.43" waitingTime="0.00" waitingCount="0" stopTime="0.00" timeLoss="8.21" rerouteNo="0" devices="tripinfo_veh000008" vType="vehicle" speedFactor="0.94" vaporized=""/>
    <tripinfo id="veh000009" depart="18.00" departLane="in_to1_0" departPos="5.10" departSpeed="10.00" departDelay="9.00" arrival="65.00" arrivalLane="4to_out_1" arrivalPos="53.38" arrivalSpeed="15.77" duration="47.00" routeLength="633.43" waitingTime="0.00" waitingCount="0" stopTime="0.00" timeLoss="7.89" rerouteNo="0" devices="tripinfo_veh000009" vType="vehicle" speedFactor="0.86" vaporized=""/>
    <tripinfo id="veh000013" depart="26.00" departLane="in_to1_0" departPos="5.10" departSpeed="10.00" departDelay="13.00" arrival="67.00" arrivalLane="4to_out_0" arrivalPos="53.38" arrivalSpeed="16.64" duration="41.00" routeLength="634.00" waitingTime="0.00" waitingCount="0" stopTime="0.00" timeLoss="2.59" rerouteNo="0" devices="tripinfo_veh000013" vType="vehicle" speedFactor="1.12" vaporized=""/>
    <tripinfo id="veh000014" depart="28.00" departLane="in_to1_0" departPos="5.10" departSpeed="10.00" departDelay="14.00" arrival="70.00" arrivalLane="4to_out_0" arrivalPos="53.38" arrivalSpeed="16.42" duration="42.00" routeLength="634.00" waitingTime="0.00" waitingCount="0" stopTime="0.00" timeLoss="3.06" rerouteNo="0" devices="tripinfo_veh000014" vType="vehicle" speedFactor="0.99" vaporized=""/>
    <tripinfo id="veh000012" depart="24.00" departLane="in_to1_0" departPos="5.10" departSpeed="10.00" departDelay="12.00" arrival="72.00" arrivalLane="4to_out_1" arrivalPos="53.38" arrivalSpeed="16.32" duration="48.00" routeLength="633.43" waitingTime="0.00" waitingCount="0" stopTime="0.00" timeLoss="9.18" rerouteNo="0" devices="tripinfo_veh000012" vType="vehicle" speedFactor="1.05" vaporized=""/>
    <tripinfo id="veh000015" depart="30.00" departLane="in_to1_0" departPos="5.10" departSpeed="10.00" departDelay="15.00" arrival="73.00" arrivalLane="4to_out_0" arrivalPos="53.38" arrivalSpeed="16.58" duration="43.00" routeLength="634.00" waitingTime="0.00" waitingCount="0" stopTime="0.00" timeLoss="3.50" rerouteNo="0" devices="tripinfo_veh000015" vType="vehicle" speedFactor="0.93" vaporized=""/>
    <tripinfo id="veh000017" depart="34.00" departLane="in_to1_0" departPos="5.10" departSpeed="10.00" departDelay="17.00" arrival="76.00" arrivalLane="4to_out_0" arrivalPos="53.38" arrivalSpeed="16.32" duration="42.00" routeLength="634.00" waitingTime="0.00" waitingCount="0" stopTime="0.00" timeLoss="3.27" rerouteNo="0" devices="tripinfo_veh000017" vType="vehicle" speedFactor="0.94" vaporized=""/>
    <tripinfo id="veh000016" depart="32.00" departLane="in_to1_0" departPos="5.10" departSpeed="10.00" departDelay="16.00" arrival="77.00" arrivalLane="4to_out_1" arrivalPos="53.38" arrivalSpeed="16.07" duration="45.00" routeLength="633.43" waitingTime="0.00" waitingCount="0" stopTime="0.00" timeLoss="5.40" rerouteNo="0" devices="tripinfo_veh000016" vType="vehicle" speedFactor="0.88" vaporized=""/>
    <tripinfo id="veh000018" depart="36.00" departLane="in_to1_0" departPos="5.10" departSpeed="10.00" departDelay="18.00" arrival="80.00" arrivalLane="4to_out_1" arrivalPos="53.38" arrivalSpeed="16.61" duration="44.00" routeLength="633.43" waitingTime="0.00" waitingCount="0" stopTime="0.00" timeLoss="4.71" rerouteNo="0" devices="tripinfo_veh000018" vType="vehicle" speedFactor="0.94" vaporized=""/>
    <tripinfo id="veh000005" depart="10.00" departLane="in_to1_0" departPos="5.10" departSpeed="10.00" departDelay="5.00" arrival="81.00" arrivalLane="4to_out_0" arrivalPos="53.38" arrivalSpeed="16.28" duration="71.00" routeLength="824.57" waitingTime="0.00" waitingCount="0" stopTime="0.00" timeLoss="18.34" rerouteNo="0" devices="tripinfo_veh000005" vType="vehicle" speedFactor="0.83" vaporized=""/>
    <tripinfo id="veh000019" depart="38.00" departLane="in_to1_0" departPos="5.10" departSpeed="10.00" departDelay="19.00" arrival="83.00" arrivalLane="4to_out_0" arrivalPos="53.38" arrivalSpeed="16.38" duration="45.00" routeLength="634.00" waitingTime="0.00" waitingCount="0" stopTime="0.00" timeLoss="6.40" rerouteNo="0" devices="tripinfo_veh000019" vType="vehicle" speedFactor="1.16" vaporized=""/>
    <tripinfo id="veh000020" depart="40.00" departLane="in_to1_0" departPos="5.10" departSpeed="10.00" departDelay="20.00" arrival="85.00" arrivalLane="4to_out_0" arrivalPos="53.38" arrivalSpeed="16.54" duration="45.00" routeLength="634.00" waitingTime="0.00" waitingCount="0" stopTime="0.00" timeLoss="5.92" rerouteNo="0" devices="tripinfo_veh000020" vType="vehicle" speedFactor="1.02" vaporized=""/>
    <tripinfo id="veh000021" depart="42.00" departLane="in_to1_0" departPos="5.10" departSpeed="10.00" departDelay="21.00" arrival="85.00" arrivalLane="4to_out_1" arrivalPos="53.38" arrivalSpeed="16.39" duration="43.00" routeLength="633.43" waitingTime="0.00" waitingCount="0" stopTime="0.00" timeLoss="4.36" rerouteNo="0" devices="tripinfo_veh000021" vType="vehicle" speedFactor="1.01" vaporized=""/>
    <tripinfo id="veh000022" depart="44.00" departLane="in_to1_0" departPos="5.10" departSpeed="10.00" departDelay="22.00" arrival="86.00" arrivalLane="4to_out_0" arrivalPos="53.38" arrivalSpeed="16.53" duration="42.00" routeLength="634.00" waitingTime="0.00" waitingCount="0" stopTime="0.00" timeLoss="3.60" rerouteNo="0" devices="tripinfo_veh000022" vType="vehicle" speedFactor="0.98" vaporized=""/>
    <tripinfo id="veh000011" depart="22.00" departLane="in_to1_0" departPos="5.10" departSpeed="10.00" departDelay="11.00" arrival="90.00" arrivalLane="4to_out_0" arrivalPos="53.38" arrivalSpeed="16.46" duration="68.00" routeLength="824.57" waitingTime="0.00" waitingCount="0" stopTime="0.00" timeLoss="15.86" rerouteNo="0" devices="tripinfo_veh000011" vType="vehicle" speedFactor="1.03" vaporized=""/>
    <tripinfo id="veh000023" depart="46.00" departLane="in_to1_0" departPos="5.10" departSpeed="10.00" departDelay="23.00" arrival="90.00" arrivalLane="4to_out_1" arrivalPos="53.38" arrivalSpeed="15.68" duration="44.00" routeLength="633.43" waitingTime="0.00" waitingCount="0" stopTime="0.00" timeLoss="5.36" rerouteNo="0" devices="tripinfo_veh000023" vType="vehicle" speedFactor="0.89" vaporized=""/>
    <tripinfo id="veh000024" depart="48.00" departLane="in_to1_0" departPos="5.10" departSpeed="10.00" departDelay="24.00" arrival="91.00" arrivalLane="4to_out_0" arrivalPos="53.38" arrivalSpeed="16.61" duration="43.00" routeLength="634.00" waitingTime="0.00" waitingCount="0" stopTime="0.00" timeLoss="4.46" rerouteNo="0" devices="tripinfo_veh000024" vType="vehicle" speedFactor="0.83" vaporized=""/>
    <tripinfo id="veh000025" depart="50.00" departLane="in_to1_0" departPos="5.10" departSpeed="10.00" departDelay="25.00" arrival="93.00" arrivalLane="4to_out_0" arrivalPos="53.38" arrivalSpeed="16.42" duration="43.00" routeLength="634.00" waitingTime="0.00" waitingCount="0" stopTime="0.00" timeLoss="3.85" rerouteNo="0" devices="tripinfo_veh000025" vType="vehicle" speedFactor="0.87" vaporized=""/>
    <tripinfo id="veh000026" depart="52.00" departLane="in_to1_0" departPos="5.10" departSpeed="10.00" departDelay="26.00" arrival="96.00" arrivalLane="4to_out_1" arrivalPos="53.38" arrivalSpeed="16.28" duration="44.00" routeLength="633.43" waitingTime="0.00" waitingCount="0" stopTime="0.00" timeLoss="5.07" rerouteNo="0" devices="tripinfo_veh000026" vType="vehicle" speedFactor="0.92" vaporized=""/>
    <tripinfo id="veh000028" depart="56.00" departLane="in_to1_0" departPos="5.10" departSpeed="10.00" departDelay="28.00" arrival="97.00" arrivalLane="4to_out_0" arrivalPos="53.38" arrivalSpeed="16.66" duration="41.00" routeLength="634.00" waitingTime="0.00" waitingCount="0" stopTime="0.00" timeLoss="2.51" rerouteNo="0" devices="tripinfo_veh000028" vType="vehicle" speedFactor="1.13" vaporized=""/>
    <tripinfo id="veh000029" depart="58.00" departLane="in_to1_0" departPos="5.10" departSpeed="10.00" departDelay="29.00" arrival="101.00" arrivalLane="4to_out_0" arrivalPos="53.38" arrivalSpeed="16.39" duration="43.00" routeLength="634.00" waitingTime="0.00" waitingCount="0" stopTime="0.00" timeLoss="3.71" rerouteNo="0" devices="tripinfo_veh000029" vType="vehicle" speedFactor="0.93" vaporized=""/>
    <tripinfo id="veh000030" depart="60.00" departLane="in_to1_0" departPos="5.10" departSpeed="10.00" departDelay="30.00" arrival="101.00" arrivalLane="4to_out_1" arrivalPos="53.38" arrivalSpeed="16.54" duration="41.00" routeLength="633.43" waitingTime="0.00" waitingCount="0" stopTime="0.00" timeLoss="2.69" rerouteNo="0" devices="tripinfo_veh000030" vType="vehicle" speedFactor="1.18" vaporized=""/>
    <tripinfo id="veh000031" depart="62.00" departLane="in_to1_0" departPos="5.10" departSpeed="10.00" departDelay="31.00" arrival="103.00" arrivalLane="4to_out_0" arrivalPos="53.38" arrivalSpeed="16.44" duration="41.00" routeLength="634.00" waitingTime="0.00" waitingCount="0" stopTime="0.00" timeLoss="2.48" rerouteNo="0" devices="tripinfo_veh000031" vType="vehicle" speedFactor="1.15" vaporized=""/>
    <tripinfo id="veh000032" depart="64.00" departLane="in_to1_0" departPos="5.10" departSpeed="10.00" departDelay="32.00" arrival="106.00" arrivalLane="4to_out_0" arrivalPos="53.38" arrivalSpeed="16.40" duration="42.00" routeLength="634.00" waitingTime="0.00" waitingCount="0" stopTime="0.00" timeLoss="3.20" rerouteNo="0" devices="tripinfo_veh000032" vType="vehicle" speedFactor="1.01" vaporized=""/>
    <tripinfo id="veh000034" depart="68.00" departLane="in_to1_0" departPos="5.10" departSpeed="10.00" departDelay="34.00" arrival="110.00" arrivalLane="4to_out_0" arrivalPos="53.38" arrivalSpeed="16.37" duration="42.00" routeLength="634.00" waitingTime="0.00" waitingCount="0" stopTime="0.00" timeLoss="2.85" rerouteNo="0" devices="tripinfo_veh000034" vType="vehicle" speedFactor="0.99" vaporized=""/>
    <tripinfo id="veh000036" depart="72.00" departLane="in_to1_0" departPos="5.10" departSpeed="10.00" departDelay="36.00" arrival="114.00" arrivalLane="4to_out_0" arrivalPos="53.38" arrivalSpeed="16.35" duration="42.00" routeLength="634.00" waitingTime="0.00" waitingCount="0" stopTime="0.00" timeLoss="3.34" rerouteNo="0" devices="tripinfo_veh000036" vType="vehicle" speedFactor="0.97" vaporized=""/>
    <tripinfo id="veh000037" depart="74.00" departLane="in_to1_0" departPos="5.10" departSpeed="10.00" departDelay="37.00" arrival="116.00" arrivalLane="4to_out_0" arrivalPos="53.38" arrivalSpeed="16.60" duration="42.00" routeLength="634.00" waitingTime="0.00" waitingCount="0" stopTime="0.00" timeLoss="3.36" rerouteNo="0" devices="tripinfo_veh000037" vType="vehicle" speedFactor="1.18" vaporized=""/>
    <tripinfo id="veh000027" depart="54.00" departLane="in_to1_0" departPos="5.10" departSpeed="10.00" departDelay="27.00" arrival="123.00" arrivalLane="4to_out_0" arrivalPos="53.38" arrivalSpeed="16.55" duration="69.00" routeLength="824.57" waitingTime="0.00" waitingCount="0" stopTime="0.00" timeLoss="17.26" rerouteNo="0" devices="tripinfo_veh000027" vType="vehicle" speedFactor="0.95" vaporized=""/>
    <tripinfo id="veh000039" depart="78.00" departLane="in_to1_0" departPos="5.10" departSpeed="10.00" departDelay="39.00" arrival="123.00" arrivalLane="4to_out_1" arrivalPos="53.38" arrivalSpeed="15.58" duration="45.00" routeLength="633.43" waitingTime="0.00" waitingCount="0" stopTime="0.00" timeLoss="6.70" rerouteNo="0" devices="tripinfo_veh000039" vType="vehicle" speedFactor="0.90" vaporized=""/>
    <tripinfo id="veh000040" depart="80.00" departLane="in_to1_0" departPos="5.10" departSpeed="10.00" departDelay="40.00" arrival="125.00" arrivalLane="4to_out_1" arrivalPos="53.38" arrivalSpeed="16.32" duration="45.00" routeLength="633.43" waitingTime="0.00" waitingCount="0" stopTime="0.00" timeLoss="6.29" rerouteNo="0" devices="tripinfo_veh000040" vType="vehicle" speedFactor="1.03" vaporized=""/>
    <tripinfo id="veh000041" depart="82.00" departLane="in_to1_0" departPos="5.10" departSpeed="10.00" departDelay="41.00" arrival="127.00" arrivalLane="4to_out_1" arrivalPos="53.38" arrivalSpeed="16.66" duration="45.00" routeLength="633.43" waitingTime="0.00" waitingCount="0" stopTime="0.00" timeLoss="5.78" rerouteNo="0" devices="tripinfo_veh000041" vType="vehicle" speedFactor="0.96" vaporized=""/>
    <tripinfo id="veh000043" depart="86.00" departLane="in_to1_0" departPos="5.10" departSpeed="10.00" departDelay="43.00" arrival="127.00" arrivalLane="4to_out_0" arrivalPos="53.38" arrivalSpeed="16.55" duration="41.00" routeLength="634.00" waitingTime="0.00" waitingCount="0" stopTime="0.00" timeLoss="2.63" rerouteNo="0" devices="tripinfo_veh000043" vType="vehicle" speedFactor="1.04" vaporized=""/>
    <tripinfo id="veh000042" depart="84.00" departLane="in_to1_0" departPos="5.10" departSpeed="10.00" departDelay="42.00" arrival="128.00" arrivalLane="4to_out_1" arrivalPos="53.38" arrivalSpeed="16.56" duration="44.00" routeLength="633.43" waitingTime="0.00" waitingCount="0" stopTime="0.00" timeLoss="5.44" rerouteNo="0" devices="tripinfo_veh000042" vType="vehicle" speedFactor="1.09" vaporized=""/>
    <tripinfo id="veh000033" depart="66.00" departLane="in_to1_0" departPos="5.10" departSpeed="10.00" departDelay="33.00" arrival="131.00" arrivalLane="4to_out_0" arrivalPos="53.38" arrivalSpeed="16.54" duration="65.00" routeLength="824.57" waitingTime="0.00" waitingCount="0" stopTime="0.00" timeLoss="12.96" rerouteNo="0" devices="tripinfo_veh000033" vType="vehicle" speedFactor="1.17" vaporized=""/>
    <tripinfo id="veh000044" depart="88.00" departLane="in_to1_0" departPos="5.10" departSpeed="10.00" departDelay="44.00" arrival="132.00" arrivalLane="4to_out_0" arrivalPos="53.38" arrivalSpeed="16.64" duration="44.00" routeLength="634.00" waitingTime="0.00" waitingCount="0" stopTime="0.00" timeLoss="5.65" rerouteNo="0" devices="tripinfo_veh000044" vType="vehicle" speedFactor="1.04" vaporized=""/>
    <tripinfo id="veh000045" depart="90.00" departLane="in_to1_0" departPos="5.10" departSpeed="10.00" departDelay="45.00" arrival="134.00" arrivalLane="4to_out_0" arrivalPos="53.38" arrivalSpeed="16.45" duration="44.00" routeLength="634.00" waitingTime="0.00" waitingCount="0" stopTime="0.00" timeLoss="5.79" rerouteNo="0" devices="tripinfo_veh000045" vType="vehicle" speedFactor="1.09" vaporized=""/>
    <tripinfo id="veh000046" depart="92.00" departLane="in_to1_0" departPos="5.10" departSpeed="10.00" departDelay="46.00" arrival="135.00" arrivalLane="4to_out_1" arrivalPos="53.38" arrivalSpeed="16.38" duration="43.00" routeLength="633.43" waitingTime="0.00" waitingCount="0" stopTime="0.00" timeLoss="3.98" rerouteNo="0" devices="tripinfo_veh000046" vType="vehicle" speedFactor="1.00" vaporized=""/>
    <tripinfo id="veh000035" depart="70.00" departLane="in_to1_0" departPos="5.10" departSpeed="10.00" departDelay="35.00" arrival="138.00" arrivalLane="4to_out_0" arrivalPos="53.38" arrivalSpeed="16.33" duration="68.00" routeLength="824.57" waitingTime="0.00" waitingCount="0" stopTime="0.00" timeLoss="16.90" rerouteNo="0" devices="tripinfo_veh000035" vType="vehicle" speedFactor="1.02" vaporized=""/>
    <tripinfo id="veh000047" depart="94.00" departLane="in_to1_0" departPos="5.10" departSpeed="10.00" departDelay="47.00" arrival="140.00" arrivalLane="4to_out_0" arrivalPos="53.38" arrivalSpeed="16.37" duration="46.00" routeLength="634.00" waitingTime="0.00" waitingCount="0" stopTime="0.00" timeLoss="6.82" rerouteNo="0" devices="tripinfo_veh000047" vType="vehicle" speedFactor="0.90" vaporized=""/>
    <tripinfo id="veh000038" depart="76.00" departLane="in_to1_0" departPos="5.10" departSpeed="10.00" departDelay="38.00" arrival="142.00" arrivalLane="4to_out_0" arrivalPos="53.38" arrivalSpeed="16.27" duration="66.00" routeLength="824.57" waitingTime="0.00" waitingCount="0" stopTime="0.00" timeLoss="13.96" rerouteNo="0" devices="tripinfo_veh000038" vType="vehicle" speedFactor="1.10" vaporized=""/>
    <tripinfo id="veh000049" depart="98.00" departLane="in_to1_0" departPos="5.10" departSpeed="10.00" departDelay="49.00" arrival="143.00" arrivalLane="4to_out_0" arrivalPos="53.38" arrivalSpeed="16.33" duration="45.00" routeLength="634.00" waitingTime="0.00" waitingCount="0" stopTime="0.00" timeLoss="6.00" rerouteNo="0" devices="tripinfo_veh000049" vType="vehicle" speedFactor="0.85" vaporized=""/>
    <tripinfo id="veh000052" depart="104.00" departLane="in_to1_0" departPos="5.10" departSpeed="10.00" departDelay="52.00" arrival="146.00" arrivalLane="4to_out_0" arrivalPos="53.38" arrivalSpeed="16.36" duration="42.00" routeLength="634.00" waitingTime="0.00" waitingCount="0" stopTime="0.00" timeLoss="3.28" rerouteNo="0" devices="tripinfo_veh000052" vType="vehicle" speedFactor="1.02" vaporized=""/>
    <tripinfo id="veh000051" depart="102.00" departLane="in_to1_0" departPos="5.10" departSpeed="10.00" departDelay="51.00" arrival="152.00" arrivalLane="4to_out_1" arrivalPos="53.38" arrivalSpeed="16.27" duration="50.00" routeLength="633.43" waitingTime="0.00" waitingCount="0" stopTime="0.00" timeLoss="11.27" rerouteNo="0" devices="tripinfo_veh000051" vType="vehicle" speedFactor="1.17" vaporized=""/>
    <tripinfo id="veh000054" depart="108.00" departLane="in_to1_0" departPos="5.10" departSpeed="10.00" departDelay="54.00" arrival="155.00" arrivalLane="4to_out_1" arrivalPos="53.38" arrivalSpeed="16.53" duration="47.00" routeLength="633.43" waitingTime="0.00" waitingCount="0" stopTime="0.00" timeLoss="8.07" rerouteNo="0" devices="tripinfo_veh000054" vType="vehicle" speedFactor="1.00" vaporized=""/>
    <tripinfo id="veh000056" depart="112.00" departLane="in_to1_0" departPos="5.10" departSpeed="10.00" departDelay="56.00" arrival="155.00" arrivalLane="4to_out_0" arrivalPos="53.38" arrivalSpeed="16.59" duration="43.00" routeLength="634.00" waitingTime="0.00" waitingCount="0" stopTime="0.00" timeLoss="3.63" rerouteNo="0" devices="tripinfo_veh000056" vType="vehicle" speedFactor="0.90" vaporized=""/>
    <tripinfo id="veh000055" depart="110.00" departLane="in_to1_0" departPos="5.10" departSpeed="10.00" departDelay="55.00" arrival="156.00" arrivalLane="4to_out_1" arrivalPos="53.38" arrivalSpeed="16.64" duration="46.00" routeLength="633.43" waitingTime="0.00" waitingCount="0" stopTime="0.00" timeLoss="7.68" rerouteNo="0" devices="tripinfo_veh000055" vType="vehicle" speedFactor="1.00" vaporized=""/>
    <tripinfo id="veh000057" depart="114.00" departLane="in_to1_0" departPos="5.10" departSpeed="10.00" departDelay="57.00" arrival="158.00" arrivalLane="4to_out_1" arrivalPos="53.38" arrivalSpeed="16.51" duration="44.00" routeLength="633.43" waitingTime="0.00" waitingCount="0" stopTime="0.00" timeLoss="5.23" rerouteNo="0" devices="tripinfo_veh000057" vType="vehicle" speedFactor="1.14" vaporized=""/>
    <tripinfo id="veh000058" depart="116.00" departLane="in_to1_0" departPos="5.10" departSpeed="10.00" departDelay="58.00" arrival="158.00" arrivalLane="4to_out_0" arrivalPos="53.38" arrivalSpeed="16.40" duration="42.00" routeLength="634.00" waitingTime="0.00" waitingCount="0" stopTime="0.00" timeLoss="2.86" rerouteNo="0" devices="tripinfo_veh000058" vType="vehicle" speedFactor="1.02" vaporized=""/>
    <tripinfo id="veh000060" depart="120.00" departLane="in_to1_0" departPos="5.10" departSpeed="10.00" departDelay="60.00" arrival="161.00" arrivalLane="4to_out_0" arrivalPos="53.38" arrivalSpeed="16.55" duration="41.00" routeLength="634.00" waitingTime="0.00" waitingCount="0" stopTime="0.00" timeLoss="2.58" rerouteNo="0" devices="tripinfo_veh000060" vType="vehicle" speedFactor="1.08" vaporized=""/>
    <tripinfo id="veh000061" depart="122.00" departLane="in_to1_0" departPos="5.10" departSpeed="10.00" departDelay="61.00" arrival="163.00" arrivalLane="4to_out_0" arrivalPos="53.38" arrivalSpeed="16.54" duration="41.00" routeLength="634.00" waitingTime="0.00" waitingCount="0" stopTime="0.00" timeLoss="2.47" rerouteNo="0" devices="tripinfo_veh000061" vType="vehicle" speedFactor="1.12" vaporized=""/>
    <tripinfo id="veh000048" depart="96.00" departLane="in_to1_0" departPos="5.10" departSpeed="10.00" departDelay="48.00" arrival="168.00" arrivalLane="4to_out_0" arrivalPos="53.38" arrivalSpeed="16.63" duration="72.00" routeLength="824.57" waitingTime="0.00" waitingCount="0" stopTime="0.00" timeLoss="19.82" rerouteNo="0" devices="tripinfo_veh000048" vType="vehicle" speedFactor="0.88" vaporized=""/>
    <tripinfo id="veh000063" depart="126.00" departLane="in_to1_0" departPos="5.10" departSpeed="10.00" departDelay="63.00" arrival="169.00" arrivalLane="4to_out_0" arrivalPos="53.38" arrivalSpeed="16.61" duration="43.00" routeLength="634.00" waitingTime="0.00" waitingCount="0" stopTime="0.00" timeLoss="4.59" rerouteNo="0" devices="tripinfo_veh000063" vType="vehicle" speedFactor="0.99" vaporized=""/>
    <tripinfo id="veh000050" depart="100.00" departLane="in_to1_0" departPos="5.10" departSpeed="10.00" departDelay="50.00" arrival="172.00" arrivalLane="4to_out_0" arrivalPos="53.38" arrivalSpeed="16.36" duration="72.00" routeLength="824.57" waitingTime="0.00" waitingCount="0" stopTime="0.00" timeLoss="19.40" rerouteNo="0" devices="tripinfo_veh000050" vType="vehicle" speedFactor="0.85" vaporized=""/>
    <tripinfo id="veh000064" depart="128.00" departLane="in_to1_0" departPos="5.10" departSpeed="10.00" departDelay="64.00" arrival="175.00" arrivalLane="4to_out_0" arrivalPos="53.38" arrivalSpeed="16.38" duration="47.00" routeLength="634.00" waitingTime="0.00" waitingCount="0" stopTime="0.00" timeLoss="8.44" rerouteNo="0" devices="tripinfo_veh000064" vType="vehicle" speedFactor="0.94" vaporized=""/>
    <tripinfo id="veh000053" depart="106.00" departLane="in_to1_0" departPos="5.10" departSpeed="10.00" departDelay="53.00" arrival="178.00" arrivalLane="4to_out_0" arrivalPos="53.38" arrivalSpeed="16.55" duration="72.00" routeLength="824.57" waitingTime="0.00" waitingCount="0" stopTime="0.00" timeLoss="19.84" rerouteNo="0" devices="tripinfo_veh000053" vType="vehicle" speedFactor="1.10" vaporized=""/>
    <tripinfo id="veh000068" depart="136.00" departLane="in_to1_0" departPos="5.10" departSpeed="10.00" departDelay="68.00" arrival="179.00" arrivalLane="4to_out_1" arrivalPos="53.38" arrivalSpeed="16.41" duration="43.00" routeLength="633.43" waitingTime="0.00" waitingCount="0" stopTime="0.00" timeLoss="4.12" rerouteNo="0" devices="tripinfo_veh000068" vType="vehicle" speedFactor="1.04" vaporized=""/>
    <tripinfo id="veh000065" depart="130.00" departLane="in_to1_0" departPos="5.10" departSpeed="10.00" departDelay="65.00" arrival="180.00" arrivalLane="4to_out_0" arrivalPos="53.38" arrivalSpeed="16.43" duration="50.00" routeLength="634.00" waitingTime="0.00" waitingCount="0" stopTime="0.00" timeLoss="10.48" rerouteNo="0" devices="tripinfo_veh000065" vType="vehicle" speedFactor="0.88" vaporized=""/>
    <tripinfo id="veh000067" depart="134.00" departLane="in_to1_0" departPos="5.10" departSpeed="10.00" departDelay="67.00" arrival="181.00" arrivalLane="4to_out_0" arrivalPos="53.38" arrivalSpeed="16.39" duration="47.00" routeLength="634.00" waitingTime="0.00" waitingCount="0" stopTime="0.00" timeLoss="8.34" rerouteNo="0" devices="tripinfo_veh000067" vType="vehicle" speedFactor="0.91" vaporized=""/>
    <tripinfo id="veh000069" depart="138.00" departLane="in_to1_0" departPos="5.10" departSpeed="10.00" departDelay="69.00" arrival="183.00" arrivalLane="4to_out_0" arrivalPos="53.38" arrivalSpeed="16.42" duration="45.00" routeLength="634.00" waitingTime="0.00" waitingCount="0" stopTime="0.00" timeLoss="5.95" rerouteNo="0" devices="tripinfo_veh000069" vType="vehicle" speedFactor="1.02" vaporized=""/>
    <tripinfo id="veh000070" depart="140.00" departLane="in_to1_0" departPos="5.10" departSpeed="10.00" departDelay="70.00" arrival="183.00" arrivalLane="4to_out_1" arrivalPos="53.38" arrivalSpeed="16.42" duration="43.00" routeLength="633.43" waitingTime="0.00" waitingCount="0" stopTime="0.00" timeLoss="3.84" rerouteNo="0" devices="tripinfo_veh000070" vType="vehicle" speedFactor="1.02" vaporized=""/>
    <tripinfo id="veh000059" depart="118.00" departLane="in_to1_0" departPos="5.10" departSpeed="10.00" departDelay="59.00" arrival="186.00" arrivalLane="4to_out_0" arrivalPos="53.38" arrivalSpeed="16.44" duration="68.00" routeLength="824.57" waitingTime="0.00" waitingCount="0" stopTime="0.00" timeLoss="16.34" rerouteNo="0" devices="tripinfo_veh000059" vType="vehicle" speedFactor="0.97" vaporized=""/>
    <tripinfo id="veh000071" depart="142.00" departLane="in_to1_0" departPos="5.10" departSpeed="10.00" departDelay="71.00" arrival="187.00" arrivalLane="4to_out_0" arrivalPos="53.38" arrivalSpeed="16.41" duration="45.00" routeLength="634.00" waitingTime="0.00" waitingCount="0" stopTime="0.00" timeLoss="6.40" rerouteNo="0" devices="tripinfo_veh000071" vType="vehicle" speedFactor="0.97" vaporized=""/>
    <tripinfo id="veh000072" depart="144.00" departLane="in_to1_0" departPos="5.10" departSpeed="10.00" departDelay="72.00" arrival="189.00" arrivalLane="4to_out_0" arrivalPos="53.38" arrivalSpeed="16.31" duration="45.00" routeLength="634.00" waitingTime="0.00" waitingCount="0" stopTime="0.00" timeLoss="5.89" rerouteNo="0" devices="tripinfo_veh000072" vType="vehicle" speedFactor="0.94" vaporized=""/>