<?xml version="1.0" encoding="UTF-8"?>

<!-- generated on Wed Jul  3 11:25:05 2019 by Eclipse SUMO GUI Version v1_2_0+0765-3423b2ab8c
<configuration xmlns:xsi="http://www.w3.org/2001/XMLSchema-instance" xsi:noNamespaceSchemaLocation="http://sumo.dlr.de/xsd/sumoConfiguration.xsd">

    <input>
        <net-file value="data/diamond.net.xml"/>
        <route-files value="data/diamond.rou.xml"/>
    </input>

    <output>
        <tripinfo-output value="data/tripinfo.xml"/>
    </output>

    <time>
        <begin value="0"/>
        <end value="20000"/>
    </time>

    <traci_server>
        <remote-port value="60757"/>
    </traci_server>

</configuration>
-->

<tripinfos xmlns:xsi="http://www.w3.org/2001/XMLSchema-instance" xsi:noNamespaceSchemaLocation="http://sumo.dlr.de/xsd/tripinfo_file.xsd">
    <tripinfo id="veh000000" depart="0.00" departLane="in_to1_0" departPos="5.10" departSpeed="10.00" departDelay="0.00" arrival="48.00" arrivalLane="6to_out_0" arrivalPos="71.00" arrivalSpeed="16.65" duration="48.00" routeLength="733.43" waitingTime="0.00" waitingCount="0" stopTime="0.00" timeLoss="3.25" rerouteNo="0" devices="tripinfo_veh000000" vType="vehicle" speedFactor="1.06" vaporized=""/>
    <tripinfo id="veh000400" depart="8.00" departLane="in_to1_0" departPos="5.10" departSpeed="10.00" departDelay="4.00" arrival="56.00" arrivalLane="6to_out_0" arrivalPos="71.00" arrivalSpeed="16.54" duration="48.00" routeLength="734.00" waitingTime="0.00" waitingCount="0" stopTime="0.00" timeLoss="3.03" rerouteNo="0" devices="tripinfo_veh000400" vType="vehicle" speedFactor="1.03" vaporized=""/>
    <tripinfo id="veh000200" depart="4.00" departLane="in_to1_0" departPos="5.10" departSpeed="10.00" departDelay="2.00" arrival="58.00" arrivalLane="6to_out_0" arrivalPos="71.00" arrivalSpeed="16.31" duration="54.00" routeLength="733.43" waitingTime="0.00" waitingCount="0" stopTime="0.00" timeLoss="8.94" rerouteNo="0" devices="tripinfo_veh000200" vType="vehicle" speedFactor="1.01" vaporized=""/>
    <tripinfo id="veh000500" depart="10.00" departLane="in_to1_0" departPos="5.10" departSpeed="10.00" departDelay="5.00" arrival="59.00" arrivalLane="6to_out_0" arrivalPos="71.00" arrivalSpeed="16.30" duration="49.00" routeLength="734.00" waitingTime="0.00" waitingCount="0" stopTime="0.00" timeLoss="4.09" rerouteNo="0" devices="tripinfo_veh000500" vType="vehicle" speedFactor="0.83" vaporized=""/>
    <tripinfo id="veh000600" depart="12.00" departLane="in_to1_0" departPos="5.10" departSpeed="10.00" departDelay="6.00" arrival="62.00" arrivalLane="6to_out_0" arrivalPos="71.00" arrivalSpeed="16.39" duration="50.00" routeLength="734.00" waitingTime="0.00" waitingCount="0" stopTime="0.00" timeLoss="4.73" rerouteNo="0" devices="tripinfo_veh000600" vType="vehicle" speedFactor="1.05" vaporized=""/>
    <tripinfo id="veh000700" depart="14.00" departLane="in_to1_0" departPos="5.10" departSpeed="10.00" departDelay="7.00" arrival="63.00" arrivalLane="6to_out_0" arrivalPos="71.00" arrivalSpeed="16.54" duration="49.00" routeLength="734.00" waitingTime="0.00" waitingCount="0" stopTime="0.00" timeLoss="4.27" rerouteNo="0" devices="tripinfo_veh000700" vType="vehicle" speedFactor="0.89" vaporized=""/>
    <tripinfo id="veh000800" depart="16.00" departLane="in_to1_0" departPos="5.10" departSpeed="10.00" departDelay="8.00" arrival="66.00" arrivalLane="6to_out_0" arrivalPos="71.00" arrivalSpeed="16.66" duration="50.00" routeLength="733.43" waitingTime="0.00" waitingCount="0" stopTime="0.00" timeLoss="4.88" rerouteNo="0" devices="tripinfo_veh000800" vType="vehicle" speedFactor="0.94" vaporized=""/>
    <tripinfo id="veh001000" depart="20.00" departLane="in_to1_0" departPos="5.10" departSpeed="10.00" departDelay="10.00" arrival="67.00" arrivalLane="6to_out_0" arrivalPos="71.00" arrivalSpeed="16.38" duration="47.00" routeLength="734.00" waitingTime="0.00" waitingCount="0" stopTime="0.00" timeLoss="2.83" rerouteNo="0" devices="tripinfo_veh001000" vType="vehicle" speedFactor="1.09" vaporized=""/>
    <tripinfo id="veh000900" depart="18.00" departLane="in_to1_0" departPos="5.10" departSpeed="10.00" departDelay="9.00" arrival="69.00" arrivalLane="6to_out_0" arrivalPos="71.00" arrivalSpeed="16.28" duration="51.00" routeLength="733.43" waitingTime="0.00" waitingCount="0" stopTime="0.00" timeLoss="6.20" rerouteNo="0" devices="tripinfo_veh000900" vType="vehicle" speedFactor="0.86" vaporized=""/>
    <tripinfo id="veh001100" depart="22.00" departLane="in_to1_0" departPos="5.10" departSpeed="10.00" departDelay="11.00" arrival="71.00" arrivalLane="6to_out_0" arrivalPos="71.00" arrivalSpeed="16.43" duration="49.00" routeLength="734.00" waitingTime="0.00" waitingCount="0" stopTime="0.00" timeLoss="4.04" rerouteNo="0" devices="tripinfo_veh001100" vType="vehicle" speedFactor="1.03" vaporized=""/>
    <tripinfo id="veh001200" depart="24.00" departLane="in_to1_0" departPos="5.10" departSpeed="10.00" departDelay="12.00" arrival="72.00" arrivalLane="6to_out_0" arrivalPos="71.00" arrivalSpeed="16.48" duration="48.00" routeLength="733.43" waitingTime="0.00" waitingCount="0" stopTime="0.00" timeLoss="3.61" rerouteNo="0" devices="tripinfo_veh001200" vType="vehicle" speedFactor="1.05" vaporized=""/>
    <tripinfo id="veh001300" depart="26.00" departLane="in_to1_0" departPos="5.10" departSpeed="10.00" departDelay="13.00" arrival="74.00" arrivalLane="6to_out_0" arrivalPos="71.00" arrivalSpeed="16.60" duration="48.00" routeLength="734.00" waitingTime="0.00" waitingCount="0" stopTime="0.00" timeLoss="3.49" rerouteNo="0" devices="tripinfo_veh001300" vType="vehicle" speedFactor="1.12" vaporized=""/>
    <tripinfo id="veh000100" depart="2.00" departLane="in_to1_0" departPos="5.10" departSpeed="10.00" departDelay="1.00" arrival="77.00" arrivalLane="6to_out_0" arrivalPos="71.00" arrivalSpeed="16.38" duration="75.00" routeLength="924.57" waitingTime="0.00" waitingCount="0" stopTime="0.00" timeLoss="17.61" rerouteNo="0" devices="tripinfo_veh000100" vType="vehicle" speedFactor="0.94" vaporized=""/>
    <tripinfo id="veh001400" depart="28.00" departLane="in_to1_0" departPos="5.10" departSpeed="10.00" departDelay="14.00" arrival="78.00" arrivalLane="6to_out_0" arrivalPos="71.00" arrivalSpeed="16.66" duration="50.00" routeLength="734.00" waitingTime="0.00" waitingCount="0" stopTime="0.00" timeLoss="5.64" rerouteNo="0" devices="tripinfo_veh001400" vType="vehicle" speedFactor="0.99" vaporized=""/>
    <tripinfo id="veh001500" depart="30.00" departLane="in_to1_0" departPos="5.10" departSpeed="10.00" departDelay="15.00" arrival="80.00" arrivalLane="6to_out_0" arrivalPos="71.00" arrivalSpeed="16.60" duration="50.00" routeLength="733.43" waitingTime="0.00" waitingCount="0" stopTime="0.00" timeLoss="4.88" rerouteNo="0" devices="tripinfo_veh001500" vType="vehicle" speedFactor="0.93" vaporized=""/>
    <tripinfo id="veh000300" depart="6.00" departLane="in_to1_0" departPos="5.10" departSpeed="10.00" departDelay="3.00" arrival="81.00" arrivalLane="6to_out_0" arrivalPos="71.00" arrivalSpeed="16.47" duration="75.00" routeLength="924.57" waitingTime="0.00" waitingCount="0" stopTime="0.00" timeLoss="17.64" rerouteNo="0" devices="tripinfo_veh000300" vType="vehicle" speedFactor="1.08" vaporized=""/>
    <tripinfo id="veh001600" depart="32.00" departLane="in_to1_0" departPos="5.10" departSpeed="10.00" departDelay="16.00" arrival="83.00" arrivalLane="6to_out_0" arrivalPos="71.00" arrivalSpeed="16.42" duration="51.00" routeLength="734.00" waitingTime="0.00" waitingCount="0" stopTime="0.00" timeLoss="6.05" rerouteNo="0" devices="tripinfo_veh001600" vType="vehicle" speedFactor="0.88" vaporized=""/>
    <tripinfo id="veh001700" depart="34.00" departLane="in_to1_0" departPos="5.10" departSpeed="10.00" departDelay="17.00" arrival="84.00" arrivalLane="6to_out_0" arrivalPos="71.00" arrivalSpeed="16.42" duration="50.00" routeLength="734.00" waitingTime="0.00" waitingCount="0" stopTime="0.00" timeLoss="5.38" rerouteNo="0" devices="tripinfo_veh001700" vType="vehicle" speedFactor="0.94" vaporized=""/>
    <tripinfo id="veh001800" depart="36.00" departLane="in_to1_0" departPos="5.10" departSpeed="10.00" departDelay="18.00" arrival="86.00" arrivalLane="6to_out_0" arrivalPos="71.00" arrivalSpeed="16.49" duration="50.00" routeLength="734.00" waitingTime="0.00" waitingCount="0" stopTime="0.00" timeLoss="4.90" rerouteNo="0" devices="tripinfo_veh001800" vType="vehicle" speedFactor="0.94" vaporized=""/>
    <tripinfo id="veh001900" depart="38.00" departLane="in_to1_0" departPos="5.10" departSpeed="10.00" departDelay="19.00" arrival="87.00" arrivalLane="6to_out_0" arrivalPos="71.00" arrivalSpeed="16.40" duration="49.00" routeLength="734.00" waitingTime="0.00" waitingCount="0" stopTime="0.00" timeLoss="4.81" rerouteNo="0" devices="tripinfo_veh001900" vType="vehicle" speedFactor="1.16" vaporized=""/>
    <tripinfo id="veh002000" depart="40.00" departLane="in_to1_0" departPos="5.10" departSpeed="10.00" departDelay="20.00" arrival="89.00" arrivalLane="6to_out_0" arrivalPos="71.00" arrivalSpeed="16.57" duration="49.00" routeLength="734.00" waitingTime="0.00" waitingCount="0" stopTime="0.00" timeLoss="3.99" rerouteNo="0" devices="tripinfo_veh002000" vType="vehicle" speedFactor="1.02" vaporized=""/>
    <tripinfo id="veh002100" depart="42.00" departLane="in_to1_0" departPos="5.10" departSpeed="10.00" departDelay="21.00" arrival="90.00" arrivalLane="6to_out_0" arrivalPos="71.00" arrivalSpeed="16.48" duration="48.00" routeLength="734.00" waitingTime="0.00" waitingCount="0" stopTime="0.00" timeLoss="3.66" rerouteNo="0" devices="tripinfo_veh002100" vType="vehicle" speedFactor="1.01" vaporized=""/>
    <tripinfo id="veh002200" depart="44.00" departLane="in_to1_0" departPos="5.10" departSpeed="10.00" departDelay="22.00" arrival="93.00" arrivalLane="6to_out_0" arrivalPos="71.00" arrivalSpeed="16.52" duration="49.00" routeLength="733.43" waitingTime="0.00" waitingCount="0" stopTime="0.00" timeLoss="4.11" rerouteNo="0" devices="tripinfo_veh002200" vType="vehicle" speedFactor="0.98" vaporized=""/>
    <tripinfo id="veh002400" depart="48.00" departLane="in_to1_0" departPos="5.10" departSpeed="10.00" departDelay="24.00" arrival="97.00" arrivalLane="6to_out_0" arrivalPos="71.00" arrivalSpeed="16.67" duration="49.00" routeLength="734.00" waitingTime="0.00" waitingCount="0" stopTime="0.00" timeLoss="4.00" rerouteNo="0" devices="tripinfo_veh002400" vType="vehicle" speedFactor="0.83" vaporized=""/>
    <tripinfo id="veh002500" depart="50.00" departLane="in_to1_0" departPos="5.10" departSpeed="10.00" departDelay="25.00" arrival="99.00" arrivalLane="6to_out_0" arrivalPos="71.00" arrivalSpeed="16.52" duration="49.00" routeLength="734.00" waitingTime="0.00" waitingCount="0" stopTime="0.00" timeLoss="3.88" rerouteNo="0" devices="tripinfo_veh002500" vType="vehicle" speedFactor="0.87" vaporized=""/>
    <tripinfo id="veh002600" depart="52.00" departLane="in_to1_0" departPos="5.10" departSpeed="10.00" departDelay="26.00" arrival="101.00" arrivalLane="6to_out_0" arrivalPos="71.00" arrivalSpeed="16.61" duration="49.00" routeLength="734.00" waitingTime="0.00" waitingCount="0" stopTime="0.00" timeLoss="3.80" rerouteNo="0" devices="tripinfo_veh002600" vType="vehicle" speedFactor="0.92" vaporized=""/>
    <tripinfo id="veh002800" depart="56.00" departLane="in_to1_0" departPos="5.10" departSpeed="10.00" departDelay="28.00" arrival="103.00" arrivalLane="6to_out_0" arrivalPos="71.00" arrivalSpeed="16.40" duration="47.00" routeLength="734.00" waitingTime="0.00" waitingCount="0" stopTime="0.00" timeLoss="2.61" rerouteNo="0" devices="tripinfo_veh002800" vType="vehicle" speedFactor="1.13" vaporized=""/>
    <tripinfo id="veh003000" depart="60.00" departLane="in_to1_0" departPos="5.10" departSpeed="10.00" departDelay="30.00" arrival="107.00" arrivalLane="6to_out_0" arrivalPos="71.00" arrivalSpeed="16.58" duration="47.00" routeLength="734.00" waitingTime="0.00" waitingCount="0" stopTime="0.00" timeLoss="2.35" rerouteNo="0" devices="tripinfo_veh003000" vType="vehicle" speedFactor="1.18" vaporized=""/>
    <tripinfo id="veh002900" depart="58.00" departLane="in_to1_0" departPos="5.10" departSpeed="10.00" departDelay="29.00" arrival="108.00" arrivalLane="6to_out_0" arrivalPos="71.00" arrivalSpeed="16.51" duration="50.00" routeLength="733.43" waitingTime="0.00" waitingCount="0" stopTime="0.00" timeLoss="5.44" rerouteNo="0" devices="tripinfo_veh002900" vType="vehicle" speedFactor="0.93" vaporized=""/>
    <tripinfo id="veh003200" depart="64.00" departLane="in_to1_0" departPos="5.10" departSpeed="10.00" departDelay="32.00" arrival="112.00" arrivalLane="6to_out_0" arrivalPos="71.00" arrivalSpeed="16.28" duration="48.00" routeLength="734.00" waitingTime="0.00" waitingCount="0" stopTime="0.00" timeLoss="3.07" rerouteNo="0" devices="tripinfo_veh003200" vType="vehicle" speedFactor="1.01" vaporized=""/>
    <tripinfo id="veh003300" depart="66.00" departLane="in_to1_0" departPos="5.10" departSpeed="10.00" departDelay="33.00" arrival="113.00" arrivalLane="6to_out_0" arrivalPos="71.00" arrivalSpeed="16.32" duration="47.00" routeLength="734.00" waitingTime="0.00" waitingCount="0" stopTime="0.00" timeLoss="2.75" rerouteNo="0" devices="tripinfo_veh003300" vType="vehicle" speedFactor="1.17" vaporized=""/>
    <tripinfo id="veh002300" depart="46.00" departLane="in_to1_0" departPos="5.10" departSpeed="10.00" departDelay="23.00" arrival="121.00" arrivalLane="6to_out_0" arrivalPos="71.00" arrivalSpeed="16.64" duration="75.00" routeLength="924.57" waitingTime="0.00" waitingCount="0" stopTime="0.00" timeLoss="17.59" rerouteNo="0" devices="tripinfo_veh002300" vType="vehicle" speedFactor="0.89" vaporized=""/>
    <tripinfo id="veh003500" depart="70.00" departLane="in_to1_0" departPos="5.10" departSpeed="10.00" departDelay="35.00" arrival="123.00" arrivalLane="6to_out_0" arrivalPos="71.00" arrivalSpeed="16.65" duration="53.00" routeLength="733.43" waitingTime="0.00" waitingCount="0" stopTime="0.00" timeLoss="8.15" rerouteNo="0" devices="tripinfo_veh003500" vType="vehicle" speedFactor="1.02" vaporized=""/>
    <tripinfo id="veh003800" depart="76.00" departLane="in_to1_0" departPos="5.10" departSpeed="10.00" departDelay="38.00" arrival="125.00" arrivalLane="6to_out_0" arrivalPos="71.00" arrivalSpeed="16.41" duration="49.00" routeLength="734.00" waitingTime="0.00" waitingCount="0" stopTime="0.00" timeLoss="3.96" rerouteNo="0" devices="tripinfo_veh003800" vType="vehicle" speedFactor="1.10" vaporized=""/>
    <tripinfo id="veh003600" depart="72.00" departLane="in_to1_0" departPos="5.10" departSpeed="10.00" departDelay="36.00" arrival="127.00" arrivalLane="6to_out_0" arrivalPos="71.00" arrivalSpeed="16.29" duration="55.00" routeLength="733.43" waitingTime="0.00" waitingCount="0" stopTime="0.00" timeLoss="9.62" rerouteNo="0" devices="tripinfo_veh003600" vType="vehicle" speedFactor="0.97" vaporized=""/>
    <tripinfo id="veh003700" depart="74.00" departLane="in_to1_0" departPos="5.10" departSpeed="10.00" departDelay="37.00" arrival="128.00" arrivalLane="6to_out_0" arrivalPos="71.00" arrivalSpeed="16.50" duration="54.00" routeLength="733.43" waitingTime="0.00" waitingCount="0" stopTime="0.00" timeLoss="9.52" rerouteNo="0" devices="tripinfo_veh003700" vType="vehicle" speedFactor="1.18" vaporized=""/>
    <tripinfo id="veh002700" depart="54.00" departLane="in_to1_0" departPos="5.10" departSpeed="10.00" departDelay="27.00" arrival="131.00" arrivalLane="6to_out_0" arrivalPos="71.00" arrivalSpeed="15.60" duration="77.00" routeLength="924.57" waitingTime="0.00" waitingCount="0" stopTime="0.00" timeLoss="19.50" rerouteNo="0" devices="tripinfo_veh002700" vType="vehicle" speedFactor="0.95" vaporized=""/>
    <tripinfo id="veh003900" depart="78.00" departLane="in_to1_0" departPos="5.10" departSpeed="10.00" departDelay="39.00" arrival="132.00" arrivalLane="6to_out_0" arrivalPos="71.00" arrivalSpeed="15.22" duration="54.00" routeLength="733.43" waitingTime="0.00" waitingCount="0" stopTime="0.00" timeLoss="9.41" rerouteNo="0" devices="tripinfo_veh003900" vType="vehicle" speedFactor="0.90" vaporized=""/>
    <tripinfo id="veh004100" depart="82.00" departLane="in_to1_0" departPos="5.10" departSpeed="10.00" departDelay="41.00" arrival="137.00" arrivalLane="6to_out_0" arrivalPos="71.00" arrivalSpeed="13.41" duration="55.00" routeLength="734.00" waitingTime="0.00" waitingCount="0" stopTime="0.00" timeLoss="9.96" rerouteNo="0" devices="tripinfo_veh004100" vType="vehicle" speedFactor="0.96" vaporized=""/>
    <tripinfo id="veh003100" depart="62.00" departLane="in_to1_0" departPos="5.10" departSpeed="10.00" departDelay="31.00" arrival="142.00" arrivalLane="6to_out_0" arrivalPos="71.00" arrivalSpeed="10.99" duration="80.00" routeLength="924.57" waitingTime="0.00" waitingCount="0" stopTime="0.00" timeLoss="22.83" rerouteNo="0" devices="tripinfo_veh003100" vType="vehicle" speedFactor="1.15" vaporized=""/>
    <tripinfo id="veh004000" depart="80.00" departLane="in_to1_0" departPos="5.10" departSpeed="10.00" departDelay="40.00" arrival="144.00" arrivalLane="6to_out_0" arrivalPos="71.00" arrivalSpeed="11.72" duration="64.00" routeLength="733.43" waitingTime="0.00" waitingCount="0" stopTime="0.00" timeLoss="19.07" rerouteNo="0" devices="tripinfo_veh004000" vType="vehicle" speedFactor="1.03" vaporized=""/>
    <tripinfo id="veh004500" depart="90.00" departLane="in_to1_0" departPos="5.10" departSpeed="10.00" departDelay="45.00" arrival="145.00" arrivalLane="6to_out_0" arrivalPos="71.00" arrivalSpeed="10.65" duration="55.00" routeLength="734.00" waitingTime="0.00" waitingCount="0" stopTime="0.00" timeLoss="10.83" rerouteNo="0" devices="tripinfo_veh004500" vType="vehicle" speedFactor="1.09" vaporized=""/>
    <tripinfo id="veh004200" depart="84.00" departLane="in_to1_0" departPos="5.10" departSpeed="10.00" departDelay="42.00" arrival="151.00" arrivalLane="6to_out_0" arrivalPos="71.00" arrivalSpeed="10.42" duration="67.00" routeLength="734.00" waitingTime="0.00" waitingCount="0" stopTime="0.00" timeLoss="22.79" rerouteNo="0" devices="tripinfo_veh004200" vType="vehicle" speedFactor="1.09" vaporized=""/>
    <tripinfo id="veh004400" depart="88.00" departLane="in_to1_0" departPos="5.10" departSpeed="10.00" departDelay="44.00" arrival="154.00" arrivalLane="6to_out_0" arrivalPos="71.00" arrivalSpeed="10.79" duration="66.00" routeLength="734.00" waitingTime="0.00" waitingCount="0" stopTime="0.00" timeLoss="21.26" rerouteNo="0" devices="tripinfo_veh004400" vType="vehicle" speedFactor="1.04" vaporized=""/>
    <tripinfo id="veh004700" depart="94.00" departLane="in_to1_0" departPos="5.10" departSpeed="10.00" departDelay="47.00" arrival="156.00" arrivalLane="6to_out_0" arrivalPos="71.00" arrivalSpeed="11.31" duration="62.00" routeLength="734.00" waitingTime="0.00" waitingCount="0" stopTime="0.00" timeLoss="17.32" rerouteNo="0" devices="tripinfo_veh004700" vType="vehicle" speedFactor="0.90" vaporized=""/>
    <tripinfo id="veh004900" depart="98.00" departLane="in_to1_0" departPos="5.10" departSpeed="10.00" departDelay="49.00" arrival="158.00" arrivalLane="6to_out_0" arrivalPos="71.00" arrivalSpeed="11.54" duration="60.00" routeLength="734.00" waitingTime="0.00" waitingCount="0" stopTime="0.00" timeLoss="14.84" rerouteNo="0" devices="tripinfo_veh004900" vType="vehicle" speedFactor="0.85" vaporized=""/>
    <tripinfo id="veh003400" depart="68.00" departLane="in_to1_0" departPos="5.10" departSpeed="10.00" departDelay="34.00" arrival="162.00" arrivalLane="6to_out_0" arrivalPos="71.00" arrivalSpeed="11.41" duration="94.00" routeLength="924.57" waitingTime="0.00" waitingCount="0" stopTime="0.00" timeLoss="36.50" rerouteNo="0" devices="tripinfo_veh003400" vType="vehicle" speedFactor="0.99" vaporized=""/>
    <tripinfo id="veh005100" depart="102.00" departLane="in_to1_0" departPos="5.10" departSpeed="10.00" departDelay="51.00" arrival="164.00" arrivalLane="6to_out_0" arrivalPos="71.00" arrivalSpeed="11.33" duration="62.00" routeLength="733.43" waitingTime="0.00" waitingCount="0" stopTime="0.00" timeLoss="17.59" rerouteNo="0" devices="tripinfo_veh005100" vType="vehicle" speedFactor="1.17" vaporized=""/>
    <tripinfo id="veh004800" depart="96.00" departLane="in_to1_0" departPos="5.10" departSpeed="10.00" departDelay="48.00" arrival="167.00" arrivalLane="6to_out_0" arrivalPos="71.00" arrivalSpeed="11.18" duration="71.00" routeLength="734.00" waitingTime="0.00" waitingCount="0" stopTime="0.00" timeLoss="26.33" rerouteNo="0" devices="tripinfo_veh004800" vType="vehicle" speedFactor="0.88" vaporized=""/>
    <tripinfo id="veh005000" depart="100.00" departLane="in_to1_0" departPos="5.10" departSpeed="10.00" departDelay="50.00" arrival="169.00" arrivalLane="6to_out_0" arrivalPos="71.00" arrivalSpeed="11.60" duration="69.00" routeLength="734.00" waitingTime="0.00" waitingCount="0" stopTime="0.00" timeLoss="24.15" rerouteNo="0" devices="tripinfo_veh005000" vType="vehicle" speedFactor="0.85" vaporized=""/>
    <tripinfo id="veh005300" depart="106.00" departLane="in_to1_0" departPos="5.10" departSpeed="10.00" departDelay="53.00" arrival="174.00" arrivalLane="6to_out_0" arrivalPos="71.00" arrivalSpeed="11.50" duration="68.00" routeLength="734.00" waitingTime="0.00" waitingCount="0" stopTime="0.00" timeLoss="23.35" rerouteNo="0" devices="tripinfo_veh005300" vType="vehicle" speedFactor="1.10" vaporized=""/>
    <tripinfo id="veh005200" depart="104.00" departLane="in_to1_0" departPos="5.10" departSpeed="10.00" departDelay="52.00" arrival="176.00" arrivalLane="6to_out_0" arrivalPos="71.00" arrivalSpeed="11.95" duration="72.00" routeLength="733.43" waitingTime="1.00" waitingCount="1" stopTime="0.00" timeLoss="27.14" rerouteNo="0" devices="tripinfo_veh005200" vType="vehicle" speedFactor="1.02" vaporized=""/>
    <tripinfo id="veh005400" depart="108.00" departLane="in_to1_0" departPos="5.10" departSpeed="10.00" departDelay="54.00" arrival="181.00" arrivalLane="6to_out_0" arrivalPos="71.00" arrivalSpeed="11.48" duration="73.00" routeLength="734.00" waitingTime="2.00" waitingCount="2" stopTime="0.00" timeLoss="28.52" rerouteNo="0" devices="tripinfo_veh005400" vType="vehicle" speedFactor="1.00" vaporized=""/>
    <tripinfo id="veh004300" depart="86.00" departLane="in_to1_0" departPos="5.10" departSpeed="10.00" departDelay="43.00" arrival="183.00" arrivalLane="6to_out_0" arrivalPos="71.00" arrivalSpeed="11.63" duration="97.00" routeLength="924.57" waitingTime="1.00" waitingCount="1" stopTime="0.00" timeLoss="39.60" rerouteNo="0" devices="tripinfo_veh004300" vType="vehicle" speedFactor="1.04" vaporized=""/>
    <tripinfo id="veh005700" depart="114.00" departLane="in_to1_0" departPos="5.10" departSpeed="10.00" departDelay="57.00" arrival="185.00" arrivalLane="6to_out_0" arrivalPos="71.00" arrivalSpeed="11.65" duration="71.00" routeLength="734.00" waitingTime="0.00" waitingCount="0" stopTime="0.00" timeLoss="26.63" rerouteNo="0" devices="tripinfo_veh005700" vType="vehicle" speedFactor="1.14" vaporized=""/>
    <tripinfo id="veh005600" depart="112.00" departLane="in_to1_0" departPos="5.10" departSpeed="10.00" departDelay="56.00" arrival="191.00" arrivalLane="6to_out_0" arrivalPos="71.00" arrivalSpeed="11.24" duration="79.00" routeLength="734.00" waitingTime="0.00" waitingCount="0" stopTime="0.00" timeLoss="34.34" rerouteNo="0" devices="tripinfo_veh005600" vType="vehicle" speedFactor="0.90" vaporized=""/>
    <tripinfo id="veh006000" depart="120.00" departLane="in_to1_0" departPos="5.10" departSpeed="10.00" departDelay="60.00" arrival="193.00" arrivalLane="6to_out_0" arrivalPos="71.00" arrivalSpeed="12.20" duration="73.00" routeLength="733.43" waitingTime="0.00" waitingCount="0" stopTime="0.00" timeLoss="28.49" rerouteNo="0" devices="tripinfo_veh006000" vType="vehicle" speedFactor="1.08" vaporized=""/>
    <tripinfo id="veh004600" depart="92.00" departLane="in_to1_0" departPos="5.10" departSpeed="10.00" departDelay="46.00" arrival="197.00" arrivalLane="6to_out_0" arrivalPos="71.00" arrivalSpeed="12.39" duration="105.00" routeLength="924.57" waitingTime="0.00" waitingCount="0" stopTime="0.00" timeLoss="47.77" rerouteNo="0" devices="tripinfo_veh004600" vType="vehicle" speedFactor="1.00" vaporized=""/>
    <tripinfo id="veh005900" depart="118.00" departLane="in_to1_0" departPos="5.10" departSpeed="10.00" departDelay="59.00" arrival="200.00" arrivalLane="6to_out_0" arrivalPos="71.00" arrivalSpeed="12.57" duration="82.00" routeLength="734.00" waitingTime="2.00" waitingCount="2" stopTime="0.00" timeLoss="37.12" rerouteNo="0" devices="tripinfo_veh005900" vType="vehicle" speedFactor="0.97" vaporized=""/>
    <tripinfo id="veh006300" depart="126.00" departLane="in_to1_0" departPos="5.10" departSpeed="10.00" departDelay="63.00" arrival="203.00" arrivalLane="6to_out_0" arrivalPos="71.00" arrivalSpeed="12.04" duration="77.00" routeLength="734.00" waitingTime="0.00" waitingCount="0" stopTime="0.00" timeLoss="32.25" rerouteNo="0" devices="tripinfo_veh006300" vType="vehicle" speedFactor="0.99" vaporized=""/>
    <tripinfo id="veh006400" depart="128.00" departLane="in_to1_0" departPos="5.10" departSpeed="10.00" departDelay="64.00" arrival="205.00" arrivalLane="6to_out_0" arrivalPos="71.00" arrivalSpeed="12.26" duration="77.00" routeLength="734.00" waitingTime="0.00" waitingCount="0" stopTime="0.00" timeLoss="32.51" rerouteNo="0" devices="tripinfo_veh006400" vType="vehicle" speedFactor="0.94" vaporized=""/>
    <tripinfo id="veh006600" depart="132.00" departLane="in_to1_0" departPos="5.10" departSpeed="10.00" departDelay="66.00" arrival="207.00" arrivalLane="6to_out_0" arrivalPos="71.00" arrivalSpeed="12.39" duration="75.00" routeLength="734.00" waitingTime="0.00" waitingCount="0" stopTime="0.00" timeLoss="30.46" rerouteNo="0" devices="tripinfo_veh006600" vType="vehicle" speedFactor="0.91" vaporized=""/>
    <tripinfo id="veh005500" depart="110.00" departLane="in_to1_0" departPos="5.10" departSpeed="10.00" departDelay="55.00" arrival="209.00" arrivalLane="6to_out_0" arrivalPos="71.00" arrivalSpeed="13.01" duration="99.00" routeLength="924.57" waitingTime="0.00" waitingCount="0" stopTime="0.00" timeLoss="41.44" rerouteNo="0" devices="tripinfo_veh005500" vType="vehicle" speedFactor="1.00" vaporized=""/>
    <tripinfo id="veh007200" depart="144.00" departLane="in_to1_0" departPos="5.10" departSpeed="10.00" departDelay="72.00" arrival="212.00" arrivalLane="6to_out_0" arrivalPos="71.00" arrivalSpeed="12.49" duration="68.00" routeLength="734.00" waitingTime="0.00" waitingCount="0" stopTime="0.00" timeLoss="23.03" rerouteNo="0" devices="tripinfo_veh007200" vType="vehicle" speedFactor="0.94" vaporized=""/>
    <tripinfo id="veh007500" depart="150.00" departLane="in_to1_0" departPos="5.10" departSpeed="10.00" departDelay="75.00" arrival="214.00" arrivalLane="6to_out_0" arrivalPos="71.00" arrivalSpeed="13.10" duration="64.00" routeLength="734.00" waitingTime="0.00" waitingCount="0" stopTime="0.00" timeLoss="19.47" rerouteNo="0" devices="tripinfo_veh007500" vType="vehicle" speedFactor="0.98" vaporized=""/>
    <tripinfo id="veh005800" depart="116.00" departLane="in_to1_0" departPos="5.10" departSpeed="10.00" departDelay="58.00" arrival="218.00" arrivalLane="6to_out_0" arrivalPos="71.00" arrivalSpeed="11.79" duration="102.00" routeLength="734.00" waitingTime="10.00" waitingCount="1" stopTime="0.00" timeLoss="57.47" rerouteNo="0" devices="tripinfo_veh005800" vType="vehicle" speedFactor="1.02" vaporized=""/>
    <tripinfo id="veh006500" depart="130.00" departLane="in_to1_0" departPos="5.10" departSpeed="10.00" departDelay="65.00" arrival="225.00" arrivalLane="6to_out_0" arrivalPos="71.00" arrivalSpeed="12.07" duration="95.00" routeLength="924.57" waitingTime="0.00" waitingCount="0" stopTime="0.00" timeLoss="36.91" rerouteNo="0" devices="tripinfo_veh006500" vType="vehicle" speedFactor="0.88" vaporized=""/>
    <tripinfo id="veh006100" depart="122.00" departLane="in_to1_0" departPos="5.10" departSpeed="10.00" departDelay="61.00" arrival="227.00" arrivalLane="6to_out_0" arrivalPos="71.00" arrivalSpeed="11.73" duration="105.00" routeLength="734.00" waitingTime="13.00" waitingCount="2" stopTime="0.00" timeLoss="60.44" rerouteNo="0" devices="tripinfo_veh006100" vType="vehicle" speedFactor="1.12" vaporized=""/>
    <tripinfo id="veh007900" depart="158.00" departLane="in_to1_0" departPos="5.10" departSpeed="10.00" departDelay="79.00" arrival="230.00" arrivalLane="6to_out_0" arrivalPos="71.00" arrivalSpeed="12.65" duration="72.00" routeLength="734.00" waitingTime="0.00" waitingCount="0" stopTime="0.00" timeLoss="27.39" rerouteNo="0" devices="tripinfo_veh007900" vType="vehicle" speedFactor="1.09" vaporized=""/>
    <tripinfo id="veh006800" depart="136.00" departLane="in_to1_0" departPos="5.10" departSpeed="10.00" departDelay="68.00" arrival="233.00" arrivalLane="6to_out_0" arrivalPos="71.00" arrivalSpeed="12.07" duration="97.00" routeLength="924.57" waitingTime="0.00" waitingCount="0" stopTime="0.00" timeLoss="40.13" rerouteNo="0" devices="tripinfo_veh006800" vType="vehicle" speedFactor="1.04" vaporized=""/>
    <tripinfo id="veh008000" depart="160.00" departLane="in_to1_0" departPos="5.10" departSpeed="10.00" departDelay="80.00" arrival="236.00" arrivalLane="6to_out_0" arrivalPos="71.00" arrivalSpeed="12.24" duration="76.00" routeLength="734.00" waitingTime="0.00" waitingCount="0" stopTime="0.00" timeLoss="31.57" rerouteNo="0" devices="tripinfo_veh008000" vType="vehicle" speedFactor="1.03" vaporized=""/>
    <tripinfo id="veh008100" depart="162.00" departLane="in_to1_0" departPos="5.10" departSpeed="10.00" departDelay="81.00" arrival="238.00" arrivalLane="6to_out_0" arrivalPos="71.00" arrivalSpeed="12.37" duration="76.00" routeLength="734.00" waitingTime="0.00" waitingCount="0" stopTime="0.00" timeLoss="31.74" rerouteNo="0" devices="tripinfo_veh008100" vType="vehicle" speedFactor="1.00" vaporized=""/>